Al                                      
   3.97500000000000     
     0.000000    0.500000    0.500000
     0.500000    0.000000    0.500000
     0.500000    0.500000    0.000000
   Al
     1
Direct
  0.000000  0.000000  0.000000
 
   28   28   28
 -.13730452201E+00 -.41458477515E-01 0.23839134197E+00 0.67686532946E+00 0.12272520307E+01
 0.18233064317E+01 0.23902768151E+01 0.28623632506E+01 0.31991359703E+01 0.33938272303E+01
 0.34706297614E+01 0.34725434193E+01 0.34405615584E+01 0.34068000862E+01 0.33930057204E+01
 0.34068000862E+01 0.34405615584E+01 0.34725434193E+01 0.34706297614E+01 0.33938272303E+01
 0.31991359703E+01 0.28623632506E+01 0.23902768151E+01 0.18233064317E+01 0.12272520307E+01
 0.67686532946E+00 0.23839134197E+00 -.41458477515E-01 -.41458477515E-01 0.14644423259E+00
 0.50587742771E+00 0.10007159004E+01 0.15737820807E+01 0.21533894306E+01 0.26681889466E+01
 0.30647617032E+01 0.33202463072E+01 0.34449053521E+01 0.34743960776E+01 0.34525502207E+01
 0.34149619023E+01 0.33888019493E+01 0.33888001682E+01 0.34149575230E+01 0.34525458823E+01
 0.34743942317E+01 0.34449070075E+01 0.33202497255E+01 0.30647632023E+01 0.26681839193E+01
 0.21533748901E+01 0.15737580290E+01 0.10006858293E+01 0.50584816091E+00 0.14642268385E+00
 -.41466450023E-01 0.23839134197E+00 0.50587742771E+00 0.92210985591E+00 0.14399172786E+01
 0.19948270926E+01 0.25161827650E+01 0.29434936616E+01 0.32412460520E+01 0.34058780475E+01
 0.34625017265E+01 0.34525378560E+01 0.34139461273E+01 0.33771155684E+01 0.33624643411E+01
 0.33771095476E+01 0.34139375103E+01 0.34525316053E+01 0.34625013306E+01 0.34058833128E+01
 0.32412523937E+01 0.29434938564E+01 0.25161698083E+01 0.19947979807E+01 0.14398747039E+01
 0.92206211378E+00 0.50583618625E+00 0.23836744351E+00 0.14642268385E+00 0.67686532946E+00
 0.10007159004E+01 0.14399172786E+01 0.19391412789E+01 0.24329554551E+01 0.28595153645E+01
 0.31754145850E+01 0.33654812621E+01 0.34435931367E+01 0.34445196116E+01 0.34063114909E+01
 0.33604692197E+01 0.33311117027E+01 0.33311077511E+01 0.33604595795E+01 0.34063014788E+01
 0.34445148959E+01 0.34435963244E+01 0.33654902532E+01 0.31754227327E+01 0.28595145630E+01
 0.24329395316E+01 0.19391092632E+01 0.14398744732E+01 0.10006724178E+01 0.67683304738E+00
 0.50583618625E+00 0.50584816091E+00 0.12272520307E+01 0.15737820807E+01 0.19948270926E+01
 0.24329554551E+01 0.28295429703E+01 0.31381703423E+01 0.33355168218E+01 0.34252668398E+01
 0.34336447765E+01 0.33957476028E+01 0.33423272963E+01 0.32990680237E+01 0.32827293649E+01
 0.32990614103E+01 0.33423176323E+01 0.33957401527E+01 0.34336438392E+01 0.34252734182E+01
 0.33355279361E+01 0.31381801602E+01 0.28295453288E+01 0.24329469117E+01 0.19948081706E+01
 0.15737577387E+01 0.12272297058E+01 0.10006724178E+01 0.92206211378E+00 0.10006858293E+01
 0.18233064317E+01 0.21533894306E+01 0.25161827650E+01 0.28595153645E+01 0.31381703423E+01
 0.33244993118E+01 0.34141803314E+01 0.34248073106E+01 0.33860890002E+01 0.33262837132E+01
 0.32707126025E+01 0.32380810849E+01 0.32380790037E+01 0.32707073368E+01 0.33262781387E+01
 0.33860861850E+01 0.34248094993E+01 0.34141877059E+01 0.33245103143E+01 0.31381822754E+01
 0.28595255171E+01 0.25161897823E+01 0.21533929122E+01 0.18233072978E+01 0.15737577387E+01
 0.14398744732E+01 0.14398747039E+01 0.15737580290E+01 0.23902768151E+01 0.26681889466E+01
 0.29434936616E+01 0.31754145850E+01 0.33355168218E+01 0.34141803314E+01 0.34214506988E+01
 0.33804134172E+01 0.33153492830E+01 0.32497079085E+01 0.32024370792E+01 0.31853602277E+01
 0.32024367893E+01 0.32497073841E+01 0.33153487586E+01 0.33804133958E+01 0.34214520886E+01
 0.34141844446E+01 0.33355249152E+01 0.31754279459E+01 0.29435118708E+01 0.26682107008E+01
 0.23902988230E+01 0.21533929122E+01 0.19948081706E+01 0.19391092632E+01 0.19947979807E+01
 0.21533748901E+01 0.28623632506E+01 0.30647617032E+01 0.32412460520E+01 0.33654812621E+01
 0.34252668398E+01 0.34248073106E+01 0.33804134172E+01 0.33114800410E+01 0.32385767526E+01
 0.31795953520E+01 0.31470012684E+01 0.31470026863E+01 0.31795989240E+01 0.32385802249E+01
 0.33114813637E+01 0.33804115549E+01 0.34248035365E+01 0.34252644559E+01 0.33654841257E+01
 0.32412576191E+01 0.30647822402E+01 0.28623897482E+01 0.26682107008E+01 0.25161897823E+01
 0.24329469117E+01 0.24329395316E+01 0.25161698083E+01 0.26681839193E+01 0.31991359703E+01
 0.33202463072E+01 0.34058780475E+01 0.34435931367E+01 0.34336447765E+01 0.33860890002E+01
 0.33153492830E+01 0.32385767526E+01 0.31717470678E+01 0.31269040347E+01 0.31111846622E+01
 0.31269078455E+01 0.31717522989E+01 0.32385799383E+01 0.33153474445E+01 0.33860816504E+01
 0.34336338087E+01 0.34435834967E+01 0.34058739939E+01 0.33202514186E+01 0.31991500737E+01
 0.30647822402E+01 0.29435118708E+01 0.28595255171E+01 0.28295453288E+01 0.28595145630E+01
 0.29434938564E+01 0.30647632023E+01 0.33938272303E+01 0.34449053521E+01 0.34625017265E+01
 0.34445196116E+01 0.33957476028E+01 0.33262837132E+01 0.32497079085E+01 0.31795953520E+01
 0.31269040347E+01 0.30988373690E+01 0.30988389478E+01 0.31269077524E+01 0.31795983720E+01
 0.32497072163E+01 0.33262771222E+01 0.33957356054E+01 0.34445041488E+01 0.34624869758E+01
 0.34448949210E+01 0.33938226326E+01 0.33202514186E+01 0.32412576191E+01 0.31754279459E+01
 0.31381822754E+01 0.31381801602E+01 0.31754227327E+01 0.32412523937E+01 0.33202497255E+01
 0.34706297614E+01 0.34743960776E+01 0.34525378560E+01 0.34063114909E+01 0.33423272963E+01
 0.32707126025E+01 0.32024370792E+01 0.31470012684E+01 0.31111846622E+01 0.30988389478E+01
 0.31111857182E+01 0.31470023685E+01 0.32024364740E+01 0.32707088328E+01 0.33423192921E+01
 0.34062997522E+01 0.34525234958E+01 0.34743805326E+01 0.34706155361E+01 0.34448949210E+01
 0.34058739939E+01 0.33654841257E+01 0.33355249152E+01 0.33245103143E+01 0.33355279361E+01
 0.33654902532E+01 0.34058833128E+01 0.34449070075E+01 0.34725434193E+01 0.34525502207E+01
 0.34139461273E+01 0.33604692197E+01 0.32990680237E+01 0.32380810849E+01 0.31853602277E+01
 0.31470026863E+01 0.31269078455E+01 0.31269077524E+01 0.31470023685E+01 0.31853596865E+01
 0.32380801309E+01 0.32990664057E+01 0.33604661505E+01 0.34139407998E+01 0.34525422966E+01
 0.34725322632E+01 0.34743805326E+01 0.34624869758E+01 0.34435834967E+01 0.34252644559E+01
 0.34141844446E+01 0.34141877059E+01 0.34252734182E+01 0.34435963244E+01 0.34625013306E+01
 0.34743942317E+01 0.34405615584E+01 0.34149619023E+01 0.33771155684E+01 0.33311117027E+01
 0.32827293649E+01 0.32380790037E+01 0.32024367893E+01 0.31795989240E+01 0.31717522989E+01
 0.31795983720E+01 0.32024364740E+01 0.32380801309E+01 0.32827325720E+01 0.33311170219E+01
 0.33771216824E+01 0.34149665003E+01 0.34405626713E+01 0.34525422966E+01 0.34525234958E+01
 0.34445041488E+01 0.34336338087E+01 0.34248035365E+01 0.34214520886E+01 0.34248094993E+01
 0.34336438392E+01 0.34445148959E+01 0.34525316053E+01 0.34525458823E+01 0.34068000862E+01
 0.33888019493E+01 0.33624643411E+01 0.33311077511E+01 0.32990614103E+01 0.32707073368E+01
 0.32497073841E+01 0.32385802249E+01 0.32385799383E+01 0.32497072163E+01 0.32707088328E+01
 0.32990664057E+01 0.33311170219E+01 0.33624772540E+01 0.33888165707E+01 0.34068132622E+01
 0.34149665003E+01 0.34139407998E+01 0.34062997522E+01 0.33957356054E+01 0.33860816504E+01
 0.33804115549E+01 0.33804133958E+01 0.33860861850E+01 0.33957401527E+01 0.34063014788E+01
 0.34139375103E+01 0.34149575230E+01 0.33930057204E+01 0.33888001682E+01 0.33771095476E+01
 0.33604595795E+01 0.33423176323E+01 0.33262781387E+01 0.33153487586E+01 0.33114813637E+01
 0.33153474445E+01 0.33262771222E+01 0.33423192921E+01 0.33604661505E+01 0.33771216824E+01
 0.33888165707E+01 0.33930237515E+01 0.33888165707E+01 0.33771216824E+01 0.33604661505E+01
 0.33423192921E+01 0.33262771222E+01 0.33153474445E+01 0.33114813637E+01 0.33153487586E+01
 0.33262781387E+01 0.33423176323E+01 0.33604595795E+01 0.33771095476E+01 0.33888001682E+01
 0.34068000862E+01 0.34149575230E+01 0.34139375103E+01 0.34063014788E+01 0.33957401527E+01
 0.33860861850E+01 0.33804133958E+01 0.33804115549E+01 0.33860816504E+01 0.33957356054E+01
 0.34062997522E+01 0.34139407998E+01 0.34149665003E+01 0.34068132622E+01 0.33888165707E+01
 0.33624772540E+01 0.33311170219E+01 0.32990664057E+01 0.32707088328E+01 0.32497072163E+01
 0.32385799383E+01 0.32385802249E+01 0.32497073841E+01 0.32707073368E+01 0.32990614103E+01
 0.33311077511E+01 0.33624643411E+01 0.33888019493E+01 0.34405615584E+01 0.34525458823E+01
 0.34525316053E+01 0.34445148959E+01 0.34336438392E+01 0.34248094993E+01 0.34214520886E+01
 0.34248035365E+01 0.34336338087E+01 0.34445041488E+01 0.34525234958E+01 0.34525422966E+01
 0.34405626713E+01 0.34149665003E+01 0.33771216824E+01 0.33311170219E+01 0.32827325720E+01
 0.32380801309E+01 0.32024364740E+01 0.31795983720E+01 0.31717522989E+01 0.31795989240E+01
 0.32024367893E+01 0.32380790037E+01 0.32827293649E+01 0.33311117027E+01 0.33771155684E+01
 0.34149619023E+01 0.34725434193E+01 0.34743942317E+01 0.34625013306E+01 0.34435963244E+01
 0.34252734182E+01 0.34141877059E+01 0.34141844446E+01 0.34252644559E+01 0.34435834967E+01
 0.34624869758E+01 0.34743805326E+01 0.34725322632E+01 0.34525422966E+01 0.34139407998E+01
 0.33604661505E+01 0.32990664057E+01 0.32380801309E+01 0.31853596865E+01 0.31470023685E+01
 0.31269077524E+01 0.31269078455E+01 0.31470026863E+01 0.31853602277E+01 0.32380810849E+01
 0.32990680237E+01 0.33604692197E+01 0.34139461273E+01 0.34525502207E+01 0.34706297614E+01
 0.34449070075E+01 0.34058833128E+01 0.33654902532E+01 0.33355279361E+01 0.33245103143E+01
 0.33355249152E+01 0.33654841257E+01 0.34058739939E+01 0.34448949210E+01 0.34706155361E+01
 0.34743805326E+01 0.34525234958E+01 0.34062997522E+01 0.33423192921E+01 0.32707088328E+01
 0.32024364740E+01 0.31470023685E+01 0.31111857182E+01 0.30988389478E+01 0.31111846622E+01
 0.31470012684E+01 0.32024370792E+01 0.32707126025E+01 0.33423272963E+01 0.34063114909E+01
 0.34525378560E+01 0.34743960776E+01 0.33938272303E+01 0.33202497255E+01 0.32412523937E+01
 0.31754227327E+01 0.31381801602E+01 0.31381822754E+01 0.31754279459E+01 0.32412576191E+01
 0.33202514186E+01 0.33938226326E+01 0.34448949210E+01 0.34624869758E+01 0.34445041488E+01
 0.33957356054E+01 0.33262771222E+01 0.32497072163E+01 0.31795983720E+01 0.31269077524E+01
 0.30988389478E+01 0.30988373690E+01 0.31269040347E+01 0.31795953520E+01 0.32497079085E+01
 0.33262837132E+01 0.33957476028E+01 0.34445196116E+01 0.34625017265E+01 0.34449053521E+01
 0.31991359703E+01 0.30647632023E+01 0.29434938564E+01 0.28595145630E+01 0.28295453288E+01
 0.28595255171E+01 0.29435118708E+01 0.30647822402E+01 0.31991500737E+01 0.33202514186E+01
 0.34058739939E+01 0.34435834967E+01 0.34336338087E+01 0.33860816504E+01 0.33153474445E+01
 0.32385799383E+01 0.31717522989E+01 0.31269078455E+01 0.31111846622E+01 0.31269040347E+01
 0.31717470678E+01 0.32385767526E+01 0.33153492830E+01 0.33860890002E+01 0.34336447765E+01
 0.34435931367E+01 0.34058780475E+01 0.33202463072E+01 0.28623632506E+01 0.26681839193E+01
 0.25161698083E+01 0.24329395316E+01 0.24329469117E+01 0.25161897823E+01 0.26682107008E+01
 0.28623897482E+01 0.30647822402E+01 0.32412576191E+01 0.33654841257E+01 0.34252644559E+01
 0.34248035365E+01 0.33804115549E+01 0.33114813637E+01 0.32385802249E+01 0.31795989240E+01
 0.31470026863E+01 0.31470012684E+01 0.31795953520E+01 0.32385767526E+01 0.33114800410E+01
 0.33804134172E+01 0.34248073106E+01 0.34252668398E+01 0.33654812621E+01 0.32412460520E+01
 0.30647617032E+01 0.23902768151E+01 0.21533748901E+01 0.19947979807E+01 0.19391092632E+01
 0.19948081706E+01 0.21533929122E+01 0.23902988230E+01 0.26682107008E+01 0.29435118708E+01
 0.31754279459E+01 0.33355249152E+01 0.34141844446E+01 0.34214520886E+01 0.33804133958E+01
 0.33153487586E+01 0.32497073841E+01 0.32024367893E+01 0.31853602277E+01 0.32024370792E+01
 0.32497079085E+01 0.33153492830E+01 0.33804134172E+01 0.34214506988E+01 0.34141803314E+01
 0.33355168218E+01 0.31754145850E+01 0.29434936616E+01 0.26681889466E+01 0.18233064317E+01
 0.15737580290E+01 0.14398747039E+01 0.14398744732E+01 0.15737577387E+01 0.18233072978E+01
 0.21533929122E+01 0.25161897823E+01 0.28595255171E+01 0.31381822754E+01 0.33245103143E+01
 0.34141877059E+01 0.34248094993E+01 0.33860861850E+01 0.33262781387E+01 0.32707073368E+01
 0.32380790037E+01 0.32380810849E+01 0.32707126025E+01 0.33262837132E+01 0.33860890002E+01
 0.34248073106E+01 0.34141803314E+01 0.33244993118E+01 0.31381703423E+01 0.28595153645E+01
 0.25161827650E+01 0.21533894306E+01 0.12272520307E+01 0.10006858293E+01 0.92206211378E+00
 0.10006724178E+01 0.12272297058E+01 0.15737577387E+01 0.19948081706E+01 0.24329469117E+01
 0.28295453288E+01 0.31381801602E+01 0.33355279361E+01 0.34252734182E+01 0.34336438392E+01
 0.33957401527E+01 0.33423176323E+01 0.32990614103E+01 0.32827293649E+01 0.32990680237E+01
 0.33423272963E+01 0.33957476028E+01 0.34336447765E+01 0.34252668398E+01 0.33355168218E+01
 0.31381703423E+01 0.28295429703E+01 0.24329554551E+01 0.19948270926E+01 0.15737820807E+01
 0.67686532946E+00 0.50584816091E+00 0.50583618625E+00 0.67683304738E+00 0.10006724178E+01
 0.14398744732E+01 0.19391092632E+01 0.24329395316E+01 0.28595145630E+01 0.31754227327E+01
 0.33654902532E+01 0.34435963244E+01 0.34445148959E+01 0.34063014788E+01 0.33604595795E+01
 0.33311077511E+01 0.33311117027E+01 0.33604692197E+01 0.34063114909E+01 0.34445196116E+01
 0.34435931367E+01 0.33654812621E+01 0.31754145850E+01 0.28595153645E+01 0.24329554551E+01
 0.19391412789E+01 0.14399172786E+01 0.10007159004E+01 0.23839134197E+00 0.14642268385E+00
 0.23836744351E+00 0.50583618625E+00 0.92206211378E+00 0.14398747039E+01 0.19947979807E+01
 0.25161698083E+01 0.29434938564E+01 0.32412523937E+01 0.34058833128E+01 0.34625013306E+01
 0.34525316053E+01 0.34139375103E+01 0.33771095476E+01 0.33624643411E+01 0.33771155684E+01
 0.34139461273E+01 0.34525378560E+01 0.34625017265E+01 0.34058780475E+01 0.32412460520E+01
 0.29434936616E+01 0.25161827650E+01 0.19948270926E+01 0.14399172786E+01 0.92210985591E+00
 0.50587742771E+00 -.41458477515E-01 -.41466450023E-01 0.14642268385E+00 0.50584816091E+00
 0.10006858293E+01 0.15737580290E+01 0.21533748901E+01 0.26681839193E+01 0.30647632023E+01
 0.33202497255E+01 0.34449070075E+01 0.34743942317E+01 0.34525458823E+01 0.34149575230E+01
 0.33888001682E+01 0.33888019493E+01 0.34149619023E+01 0.34525502207E+01 0.34743960776E+01
 0.34449053521E+01 0.33202463072E+01 0.30647617032E+01 0.26681889466E+01 0.21533894306E+01
 0.15737820807E+01 0.10007159004E+01 0.50587742771E+00 0.14644423259E+00 -.41458987294E-01
 0.14644474237E+00 0.50587862241E+00 0.10007170435E+01 0.15737825231E+01 0.21533890096E+01
 0.26681880320E+01 0.30647608940E+01 0.33202460221E+01 0.34449056032E+01 0.34743965535E+01
 0.34525505716E+01 0.34149619924E+01 0.33888018982E+01 0.33888001792E+01 0.34149576613E+01
 0.34525459945E+01 0.34743940792E+01 0.34449065095E+01 0.33202491067E+01 0.30647628960E+01
 0.26681842620E+01 0.21533758234E+01 0.15737590526E+01 0.10006862859E+01 0.50584768201E+00
 0.14642148148E+00 -.41467677952E-01 0.14644474237E+00 0.41967533136E+00 0.84549034597E+00
 0.13763296531E+01 0.19467236106E+01 0.24844798983E+01 0.29273785525E+01 0.32384235889E+01
 0.34131581045E+01 0.34765197331E+01 0.34705430838E+01 0.34341909263E+01 0.33984137968E+01
 0.33840596153E+01 0.33984075196E+01 0.34341817447E+01 0.34705359981E+01 0.34765185247E+01
 0.34131629977E+01 0.32384299422E+01 0.29273786431E+01 0.24844654895E+01 0.19466906062E+01
 0.13762800944E+01 0.84543372818E+00 0.41962565761E+00 0.14641558475E+00 0.52575566800E-01
 0.50587862241E+00 0.84549034597E+00 0.13076002324E+01 0.18352379576E+01 0.23602941011E+01
 0.28176706462E+01 0.31608981880E+01 0.33726504419E+01 0.34659662291E+01 0.34761815837E+01
 0.34433445488E+01 0.34002288909E+01 0.33719396644E+01 0.33719351620E+01 0.34002177834E+01
 0.34433327550E+01 0.34761754854E+01 0.34659689860E+01 0.33726597394E+01 0.31609061845E+01
 0.28176670424E+01 0.23602703693E+01 0.18351922111E+01 0.13075392376E+01 0.84542796647E+00
 0.50583204727E+00 0.32689599843E+00 0.32691320492E+00 0.10007170435E+01 0.13763296531E+01
 0.18352379576E+01 0.23164804838E+01 0.27569811716E+01 0.31058537927E+01 0.33362981210E+01
 0.34502146562E+01 0.34739419342E+01 0.34450530410E+01 0.33964251422E+01 0.33552666482E+01
 0.33394865505E+01 0.33552578422E+01 0.33964120930E+01 0.34450425930E+01 0.34739397898E+01
 0.34502219898E+01 0.33363106463E+01 0.31058626177E+01 0.27569769088E+01 0.23164570794E+01
 0.18351966170E+01 0.13762792206E+01 0.10006711482E+01 0.75601120036E+00 0.67128425983E+00
 0.75603855130E+00 0.15737825231E+01 0.19467236106E+01 0.23602941011E+01 0.27569811716E+01
 0.30859942237E+01 0.33150270979E+01 0.34369604399E+01 0.34688559346E+01 0.34427950309E+01
 0.33899414009E+01 0.33375534538E+01 0.33060291629E+01 0.33060253797E+01 0.33375439536E+01
 0.33899310034E+01 0.34427891547E+01 0.34688581958E+01 0.34369704968E+01 0.33150408220E+01
 0.30860048569E+01 0.27569826768E+01 0.23602835278E+01 0.19467028828E+01 0.15737583721E+01
 0.12934660354E+01 0.11436085598E+01 0.11436159568E+01 0.12934854253E+01 0.21533890096E+01
 0.24844798983E+01 0.28176706462E+01 0.31058537927E+01 0.33150270979E+01 0.34318545571E+01
 0.34651156900E+01 0.34398821526E+01 0.33836999414E+01 0.33221931548E+01 0.32764103476E+01
 0.32596529200E+01 0.32764067206E+01 0.33221875684E+01 0.33836951638E+01 0.34398808077E+01
 0.34651195561E+01 0.34318635133E+01 0.33150397568E+01 0.31058673531E+01 0.28176825328E+01
 0.24844884748E+01 0.21533938690E+01 0.18739204774E+01 0.16879458254E+01 0.16228141990E+01
 0.16879453089E+01 0.18739185044E+01 0.26681880320E+01 0.29273785525E+01 0.31608981880E+01
 0.33362981210E+01 0.34369604399E+01 0.34651156900E+01 0.34386352056E+01 0.33799691244E+01
 0.33118665135E+01 0.32545269680E+01 0.32222551748E+01 0.32222553334E+01 0.32545273248E+01
 0.33118664818E+01 0.33799686079E+01 0.34386344961E+01 0.34651163002E+01 0.34369642056E+01
 0.33363070764E+01 0.31609134469E+01 0.29273990800E+01 0.26682113073E+01 0.24241390357E+01
 0.22351325619E+01 0.21322390892E+01 0.21322335765E+01 0.22351171876E+01 0.24241173901E+01
 0.30647608940E+01 0.32384235889E+01 0.33726504419E+01 0.34502146562E+01 0.34688559346E+01
 0.34398821526E+01 0.33799691244E+01 0.33082381922E+01 0.32429608934E+01 0.31981776752E+01
 0.31823290120E+01 0.31981807543E+01 0.32429652048E+01 0.33082408544E+01 0.33799680800E+01
 0.34398771300E+01 0.34688493916E+01 0.34502108051E+01 0.33726534279E+01 0.32384362613E+01
 0.30647820307E+01 0.28801018695E+01 0.27171990382E+01 0.26057729711E+01 0.25662175465E+01
 0.26057595985E+01 0.27171762956E+01 0.28800766231E+01 0.33202460221E+01 0.34131581045E+01
 0.34659662291E+01 0.34739419342E+01 0.34427950309E+01 0.33836999414E+01 0.33118665135E+01
 0.32429608934E+01 0.31898903057E+01 0.31612731087E+01 0.31612751899E+01 0.31898950955E+01
 0.32429654164E+01 0.33118669789E+01 0.33836943031E+01 0.34427836231E+01 0.34739279289E+01
 0.34659549293E+01 0.34131535693E+01 0.33202509286E+01 0.32029612943E+01 0.30841116594E+01
 0.29879297005E+01 0.29342856218E+01 0.29342805958E+01 0.29879165705E+01 0.30840956058E+01
 0.32029483161E+01 0.34449056032E+01 0.34765197331E+01 0.34761815837E+01 0.34450530410E+01
 0.33899414009E+01 0.33221931548E+01 0.32545269680E+01 0.31981776752E+01 0.31612731087E+01
 0.31484768382E+01 0.31612757691E+01 0.31981811116E+01 0.32545282418E+01 0.33221896005E+01
 0.33899316061E+01 0.34450382189E+01 0.34761640104E+01 0.34765038492E+01 0.34448945441E+01
 0.33869516137E+01 0.33155469011E+01 0.32474239252E+01 0.31987727473E+01 0.31811612870E+01
 0.31987699343E+01 0.32474206670E+01 0.33155463912E+01 0.33869567410E+01 0.34743965535E+01
 0.34705430838E+01 0.34433445488E+01 0.33964251422E+01 0.33375534538E+01 0.32764103476E+01
 0.32222551748E+01 0.31823290120E+01 0.31612751899E+01 0.31612757691E+01 0.31823303510E+01
 0.32222560593E+01 0.32764091634E+01 0.33375488812E+01 0.33964162392E+01 0.34433319820E+01
 0.34705279403E+01 0.34743805218E+01 0.34565257858E+01 0.34229352850E+01 0.33831891279E+01
 0.33484406158E+01 0.33283076995E+01 0.33283092420E+01 0.33484452484E+01 0.33831971612E+01
 0.34229466927E+01 0.34565400662E+01 0.34525505716E+01 0.34341909263E+01 0.34002288909E+01
 0.33552666482E+01 0.33060291629E+01 0.32596529200E+01 0.32222553334E+01 0.31981807543E+01
 0.31898950955E+01 0.31981811116E+01 0.32222560593E+01 0.32596539616E+01 0.33060300839E+01
 0.33552668262E+01 0.34002269966E+01 0.34341860827E+01 0.34525425968E+01 0.34541402012E+01
 0.34416339791E+01 0.34207370584E+01 0.33985703464E+01 0.33819233806E+01 0.33757691174E+01
 0.33819285770E+01 0.33985798247E+01 0.34207492493E+01 0.34416467050E+01 0.34541511955E+01
 0.34149619924E+01 0.33984137968E+01 0.33719396644E+01 0.33394865505E+01 0.33060253797E+01
 0.32764067206E+01 0.32545273248E+01 0.32429652048E+01 0.32429654164E+01 0.32545282418E+01
 0.32764091634E+01 0.33060300839E+01 0.33394934129E+01 0.33719479261E+01 0.33984215322E+01
 0.34149669005E+01 0.34197280639E+01 0.34134935270E+01 0.33994939606E+01 0.33825154577E+01
 0.33676479728E+01 0.33590557186E+01 0.33590580731E+01 0.33676543093E+01 0.33825235137E+01
 0.33995008851E+01 0.34134972228E+01 0.34197273704E+01 0.33888018982E+01 0.33840596153E+01
 0.33719351620E+01 0.33552578422E+01 0.33375439536E+01 0.33221875684E+01 0.33118664818E+01
 0.33082408544E+01 0.33118669789E+01 0.33221896005E+01 0.33375488812E+01 0.33552668262E+01
 0.33719479261E+01 0.33840747275E+01 0.33888169515E+01 0.33848102455E+01 0.33726086909E+01
 0.33546186146E+01 0.33345270426E+01 0.33164294981E+01 0.33039383738E+01 0.32994905306E+01
 0.33039409089E+01 0.33164329923E+01 0.33345290843E+01 0.33546168069E+01 0.33726015056E+01
 0.33847981170E+01 0.33888001792E+01 0.33984075196E+01 0.34002177834E+01 0.33964120930E+01
 0.33899310034E+01 0.33836951638E+01 0.33799686079E+01 0.33799680800E+01 0.33836943031E+01
 0.33899316061E+01 0.33964162392E+01 0.34002269966E+01 0.33984215322E+01 0.33888169515E+01
 0.33706868261E+01 0.33451170842E+01 0.33148715326E+01 0.32838119800E+01 0.32560891394E+01
 0.32353761189E+01 0.32243326149E+01 0.32243334806E+01 0.32353777929E+01 0.32560895454E+01
 0.32838086939E+01 0.33148629960E+01 0.33451036201E+01 0.33706702524E+01 0.34149576613E+01
 0.34341817447E+01 0.34433327550E+01 0.34450425930E+01 0.34427891547E+01 0.34398808077E+01
 0.34386344961E+01 0.34398771300E+01 0.34427836231E+01 0.34450382189E+01 0.34433319820E+01
 0.34341860827E+01 0.34149669005E+01 0.33848102455E+01 0.33451170842E+01 0.32994079178E+01
 0.32525833988E+01 0.32098875680E+01 0.31759597761E+01 0.31542430182E+01 0.31467817991E+01
 0.31542443661E+01 0.31759611322E+01 0.32098867671E+01 0.32525787358E+01 0.32993991105E+01
 0.33451052447E+01 0.33847981731E+01 0.34525459945E+01 0.34705359981E+01 0.34761754854E+01
 0.34739397898E+01 0.34688581958E+01 0.34651195561E+01 0.34651163002E+01 0.34688493916E+01
 0.34739279289E+01 0.34761640104E+01 0.34705279403E+01 0.34525425968E+01 0.34197280639E+01
 0.33726086909E+01 0.33148715326E+01 0.32525833988E+01 0.31927886811E+01 0.31420630048E+01
 0.31055243871E+01 0.30864733049E+01 0.30864741471E+01 0.31055264220E+01 0.31420648093E+01
 0.31927889590E+01 0.32525814575E+01 0.33148679287E+01 0.33726054765E+01 0.34197273483E+01
 0.34743940792E+01 0.34765185247E+01 0.34659689860E+01 0.34502219898E+01 0.34369704968E+01
 0.34318635133E+01 0.34369642056E+01 0.34502108051E+01 0.34659549293E+01 0.34765038492E+01
 0.34743805218E+01 0.34541402012E+01 0.34134935270E+01 0.33546186146E+01 0.32838119800E+01
 0.32098875680E+01 0.31420630048E+01 0.30881790166E+01 0.30537735379E+01 0.30419752427E+01
 0.30537742399E+01 0.30881802822E+01 0.31420648014E+01 0.32098899796E+01 0.32838154815E+01
 0.33546240670E+01 0.34135012791E+01 0.34541509659E+01 0.34449065095E+01 0.34131629977E+01
 0.33726597394E+01 0.33363106463E+01 0.33150408220E+01 0.33150397568E+01 0.33363070764E+01
 0.33726534279E+01 0.34131535693E+01 0.34448945441E+01 0.34565257858E+01 0.34416339791E+01
 0.33994939606E+01 0.33345270426E+01 0.32560891394E+01 0.31759597761E+01 0.31055243871E+01
 0.30537735379E+01 0.30265223430E+01 0.30265216031E+01 0.30537718460E+01 0.31055234286E+01
 0.31759612522E+01 0.32560945472E+01 0.33345365891E+01 0.33995066424E+01 0.34416485745E+01
 0.34565396646E+01 0.33202491067E+01 0.32384299422E+01 0.31609061845E+01 0.31058626177E+01
 0.30860048569E+01 0.31058673531E+01 0.31609134469E+01 0.32384362613E+01 0.33202509286E+01
 0.33869516137E+01 0.34229352850E+01 0.34207370584E+01 0.33825154577E+01 0.33164294981E+01
 0.32353761189E+01 0.31542430182E+01 0.30864733049E+01 0.30419752427E+01 0.30265216031E+01
 0.30419716916E+01 0.30864684367E+01 0.31542401270E+01 0.32353782523E+01 0.33164374164E+01
 0.33825278696E+01 0.34207504472E+01 0.34229454274E+01 0.33869564041E+01 0.30647628960E+01
 0.29273786431E+01 0.28176670424E+01 0.27569769088E+01 0.27569826768E+01 0.28176825328E+01
 0.29273990800E+01 0.30647820307E+01 0.32029612943E+01 0.33155469011E+01 0.33831891279E+01
 0.33985703464E+01 0.33676479728E+01 0.33039383738E+01 0.32243326149E+01 0.31467817991E+01
 0.30864741471E+01 0.30537742399E+01 0.30537718460E+01 0.30864684367E+01 0.31467760238E+01
 0.32243305163E+01 0.33039416053E+01 0.33676557742E+01 0.33985786650E+01 0.33831933562E+01
 0.33155432043E+01 0.32029483373E+01 0.26681842620E+01 0.24844654895E+01 0.23602703693E+01
 0.23164570794E+01 0.23602835278E+01 0.24844884748E+01 0.26682113073E+01 0.28801018695E+01
 0.30841116594E+01 0.32474239252E+01 0.33484406158E+01 0.33819233806E+01 0.33590557186E+01
 0.32994905306E+01 0.32243334806E+01 0.31542443661E+01 0.31055264220E+01 0.30881802822E+01
 0.31055234286E+01 0.31542401270E+01 0.32243305163E+01 0.32994903950E+01 0.33590581793E+01
 0.33819255280E+01 0.33484388817E+01 0.32474145978E+01 0.30840936024E+01 0.28800771182E+01
 0.21533758234E+01 0.19466906062E+01 0.18351922111E+01 0.18351966170E+01 0.19467028828E+01
 0.21533938690E+01 0.24241390357E+01 0.27171990382E+01 0.29879297005E+01 0.31987727473E+01
 0.33283076995E+01 0.33757691174E+01 0.33590580731E+01 0.33039409089E+01 0.32353777929E+01
 0.31759611322E+01 0.31420648093E+01 0.31420648014E+01 0.31759612522E+01 0.32353782523E+01
 0.33039416053E+01 0.33590581793E+01 0.33757670144E+01 0.33283017605E+01 0.31987614915E+01
 0.29879133444E+01 0.27171791343E+01 0.24241181520E+01 0.15737590526E+01 0.13762800944E+01
 0.13075392376E+01 0.13762792206E+01 0.15737583721E+01 0.18739204774E+01 0.22351325619E+01
 0.26057729711E+01 0.29342856218E+01 0.31811612870E+01 0.33283092420E+01 0.33819285770E+01
 0.33676543093E+01 0.33164329923E+01 0.32560895454E+01 0.32098867671E+01 0.31927889590E+01
 0.32098899796E+01 0.32560945472E+01 0.33164374164E+01 0.33676557742E+01 0.33819255280E+01
 0.33283017605E+01 0.31811508091E+01 0.29342748614E+01 0.26057642587E+01 0.22351274770E+01
 0.18739190833E+01 0.10006862859E+01 0.84543372818E+00 0.84542796647E+00 0.10006711482E+01
 0.12934660354E+01 0.16879458254E+01 0.21322390892E+01 0.25662175465E+01 0.29342805958E+01
 0.31987699343E+01 0.33484452484E+01 0.33985798247E+01 0.33825235137E+01 0.33345290843E+01
 0.32838086939E+01 0.32525787358E+01 0.32525814575E+01 0.32838154815E+01 0.33345365891E+01
 0.33825278696E+01 0.33985786650E+01 0.33484388817E+01 0.31987614915E+01 0.29342748614E+01
 0.25662187978E+01 0.21322492158E+01 0.16879631188E+01 0.12934854111E+01 0.50584768201E+00
 0.41962565761E+00 0.50583204727E+00 0.75601120036E+00 0.11436085598E+01 0.16228141990E+01
 0.21322335765E+01 0.26057595985E+01 0.29879165705E+01 0.32474206670E+01 0.33831971612E+01
 0.34207492493E+01 0.33995008851E+01 0.33546168069E+01 0.33148629960E+01 0.32993991105E+01
 0.33148679287E+01 0.33546240670E+01 0.33995066424E+01 0.34207504472E+01 0.33831933562E+01
 0.32474145978E+01 0.29879133444E+01 0.26057642587E+01 0.21322492158E+01 0.16228395028E+01
 0.11436384426E+01 0.75603787139E+00 0.14642148148E+00 0.14641558475E+00 0.32689599843E+00
 0.67128425983E+00 0.11436159568E+01 0.16879453089E+01 0.22351171876E+01 0.27171762956E+01
 0.30840956058E+01 0.33155463912E+01 0.34229466927E+01 0.34416467050E+01 0.34134972228E+01
 0.33726015056E+01 0.33451036201E+01 0.33451052447E+01 0.33726054765E+01 0.34135012791E+01
 0.34416485745E+01 0.34229454274E+01 0.33155432043E+01 0.30840936024E+01 0.27171791343E+01
 0.22351274770E+01 0.16879631188E+01 0.11436384426E+01 0.67130646629E+00 0.32691221652E+00
 -.41467677952E-01 0.52575566800E-01 0.32691320492E+00 0.75603855130E+00 0.12934854253E+01
 0.18739185044E+01 0.24241173901E+01 0.28800766231E+01 0.32029483161E+01 0.33869567410E+01
 0.34565400662E+01 0.34541511955E+01 0.34197273704E+01 0.33847981170E+01 0.33706702524E+01
 0.33847981731E+01 0.34197273483E+01 0.34541509659E+01 0.34565396646E+01 0.33869564041E+01
 0.32029483373E+01 0.28800771182E+01 0.24241181520E+01 0.18739190833E+01 0.12934854111E+01
 0.75603787139E+00 0.32691221652E+00 0.52574854182E-01 0.23839061543E+00 0.50587740830E+00
 0.92211052808E+00 0.14399182109E+01 0.19948277332E+01 0.25161827943E+01 0.29434931612E+01
 0.32412453971E+01 0.34058776259E+01 0.34625016975E+01 0.34525381029E+01 0.34139464061E+01
 0.33771157126E+01 0.33624643641E+01 0.33771095779E+01 0.34139376323E+01 0.34525317495E+01
 0.34625013138E+01 0.34058830051E+01 0.32412518781E+01 0.29434934348E+01 0.25161698174E+01
 0.19947985328E+01 0.14398755494E+01 0.92206275437E+00 0.50583619002E+00 0.23836675009E+00
 0.14642167604E+00 0.50587740830E+00 0.84548985560E+00 0.13076007227E+01 0.18352390751E+01
 0.23602951449E+01 0.28176710380E+01 0.31608978164E+01 0.33726496631E+01 0.34659655647E+01
 0.34761813616E+01 0.34433447386E+01 0.34002292154E+01 0.33719398638E+01 0.33719351900E+01
 0.34002177944E+01 0.34433329132E+01 0.34761757677E+01 0.34659691553E+01 0.33726595276E+01
 0.31609055523E+01 0.28176662983E+01 0.23602700175E+01 0.18351926014E+01 0.13075402646E+01
 0.84542906357E+00 0.50583252240E+00 0.32689550040E+00 0.32691198874E+00 0.92211052808E+00
 0.13076007227E+01 0.17794328718E+01 0.22754674728E+01 0.27311117627E+01 0.30939366056E+01