   1   1   1   0
  0.1570187E+02  0.2810749E-09  0.2810749E-09  0.2810749E-09  0.5000000E-15
  1.000000000000000E-004
  CAR 
 Al                                      
     26.13537477     -4.95079919  301      8.56932492      1.00000000
     -4.951  0.0000E+00  0.0000E+00
     -4.847  0.0000E+00  0.0000E+00
     -4.744  0.0000E+00  0.0000E+00
     -4.640  0.0000E+00  0.0000E+00
     -4.536  0.0000E+00  0.0000E+00
     -4.433  0.0000E+00  0.0000E+00
     -4.329  0.0000E+00  0.0000E+00
     -4.225  0.0000E+00  0.0000E+00
     -4.122  0.0000E+00  0.0000E+00
     -4.018  0.0000E+00  0.0000E+00
     -3.915  0.0000E+00  0.0000E+00
     -3.811  0.0000E+00  0.0000E+00
     -3.707  0.0000E+00  0.0000E+00
     -3.604  0.0000E+00  0.0000E+00
     -3.500  0.0000E+00  0.0000E+00
     -3.396  0.0000E+00  0.0000E+00
     -3.293  0.0000E+00  0.0000E+00
     -3.189  0.0000E+00  0.0000E+00
     -3.086  0.0000E+00  0.0000E+00
     -2.982  0.0000E+00  0.0000E+00
     -2.878  0.2922E-01  0.7054E-03
     -2.775  0.4183E-01  0.4205E-02
     -2.671  0.5545E-01  0.9433E-02
     -2.568  0.6496E-01  0.1561E-01
     -2.464  0.7667E-01  0.2294E-01
     -2.360  0.8248E-01  0.3115E-01
     -2.257  0.8920E-01  0.4003E-01
     -2.153  0.9752E-01  0.4971E-01
     -2.049  0.1039E+00  0.6020E-01
     -1.946  0.1089E+00  0.7120E-01
     -1.842  0.1145E+00  0.8278E-01
     -1.739  0.1207E+00  0.9496E-01
     -1.635  0.1272E+00  0.1078E+00
     -1.531  0.1312E+00  0.1212E+00
     -1.428  0.1354E+00  0.1350E+00
     -1.324  0.1403E+00  0.1493E+00
     -1.220  0.1452E+00  0.1641E+00
     -1.117  0.1504E+00  0.1794E+00
     -1.013  0.1547E+00  0.1952E+00
     -0.910  0.1585E+00  0.2114E+00
     -0.806  0.1622E+00  0.2280E+00
     -0.702  0.1664E+00  0.2451E+00
     -0.599  0.1707E+00  0.2625E+00
     -0.495  0.1751E+00  0.2804E+00
     -0.391  0.1793E+00  0.2988E+00
     -0.288  0.1826E+00  0.3175E+00
     -0.184  0.1859E+00  0.3366E+00
     -0.081  0.1895E+00  0.3561E+00
      0.023  0.1931E+00  0.3759E+00
      0.127  0.1968E+00  0.3961E+00
      0.230  0.2007E+00  0.4167E+00
      0.334  0.2047E+00  0.4377E+00
      0.437  0.2077E+00  0.4591E+00
      0.541  0.2108E+00  0.4808E+00
      0.645  0.2139E+00  0.5028E+00
      0.748  0.2172E+00  0.5251E+00
      0.852  0.2205E+00  0.5478E+00
      0.956  0.2238E+00  0.5708E+00
      1.059  0.2273E+00  0.5941E+00
      1.163  0.2308E+00  0.6179E+00
      1.266  0.2340E+00  0.6420E+00
      1.370  0.2367E+00  0.6664E+00
      1.474  0.2396E+00  0.6910E+00
      1.577  0.2426E+00  0.7160E+00
      1.681  0.2456E+00  0.7413E+00
      1.785  0.2487E+00  0.7669E+00
      1.888  0.2519E+00  0.7929E+00
      1.992  0.2550E+00  0.8191E+00
      2.095  0.2583E+00  0.8457E+00
      2.199  0.2614E+00  0.8726E+00
      2.303  0.2641E+00  0.8999E+00
      2.406  0.2669E+00  0.9274E+00
      2.510  0.2698E+00  0.9552E+00
      2.614  0.2727E+00  0.9833E+00
      2.717  0.2758E+00  0.1012E+01
      2.821  0.2789E+00  0.1040E+01
      2.924  0.2824E+00  0.1070E+01
      3.028  0.2864E+00  0.1099E+01
      3.132  0.2911E+00  0.1129E+01
      3.235  0.2974E+00  0.1159E+01
      3.339  0.3055E+00  0.1191E+01
      3.442  0.3221E+00  0.1223E+01
      3.546  0.3343E+00  0.1257E+01
      3.650  0.3231E+00  0.1291E+01
      3.753  0.3090E+00  0.1324E+01
      3.857  0.3270E+00  0.1357E+01
      3.961  0.3065E+00  0.1389E+01
      4.064  0.3103E+00  0.1422E+01
      4.168  0.2889E+00  0.1453E+01
      4.271  0.2801E+00  0.1482E+01
      4.375  0.2863E+00  0.1511E+01
      4.479  0.2968E+00  0.1542E+01
      4.582  0.3396E+00  0.1575E+01
      4.686  0.3277E+00  0.1609E+01
      4.790  0.3401E+00  0.1644E+01
      4.893  0.3359E+00  0.1678E+01
      4.997  0.3306E+00  0.1713E+01
      5.100  0.3378E+00  0.1747E+01
      5.204  0.3704E+00  0.1783E+01
      5.308  0.3650E+00  0.1822E+01
      5.411  0.3793E+00  0.1860E+01
      5.515  0.3766E+00  0.1901E+01
      5.618  0.3873E+00  0.1940E+01
      5.722  0.3702E+00  0.1980E+01
      5.826  0.3542E+00  0.2017E+01
      5.929  0.3576E+00  0.2054E+01
      6.033  0.4007E+00  0.2092E+01
      6.137  0.3520E+00  0.2131E+01
      6.240  0.3347E+00  0.2167E+01
      6.344  0.3322E+00  0.2201E+01
      6.447  0.3196E+00  0.2235E+01
      6.551  0.3007E+00  0.2267E+01
      6.655  0.3091E+00  0.2299E+01
      6.758  0.2993E+00  0.2331E+01
      6.862  0.3420E+00  0.2364E+01
      6.966  0.3727E+00  0.2400E+01
      7.069  0.3743E+00  0.2440E+01
      7.173  0.3489E+00  0.2477E+01
      7.276  0.3601E+00  0.2514E+01
      7.380  0.3880E+00  0.2552E+01
      7.484  0.4262E+00  0.2595E+01
      7.587  0.3890E+00  0.2638E+01
      7.691  0.4039E+00  0.2679E+01
      7.795  0.4008E+00  0.2721E+01
      7.898  0.3830E+00  0.2761E+01
      8.002  0.3733E+00  0.2800E+01
      8.105  0.3707E+00  0.2839E+01
      8.209  0.3573E+00  0.2877E+01
      8.313  0.3413E+00  0.2913E+01
      8.416  0.3294E+00  0.2948E+01
      8.520  0.3500E+00  0.2982E+01
      8.623  0.3682E+00  0.3020E+01
      8.727  0.3953E+00  0.3059E+01
      8.831  0.4030E+00  0.3104E+01
      8.934  0.4023E+00  0.3146E+01
      9.038  0.4090E+00  0.3188E+01
      9.142  0.4074E+00  0.3230E+01
      9.245  0.4068E+00  0.3272E+01
      9.349  0.4096E+00  0.3314E+01
      9.452  0.4104E+00  0.3357E+01
      9.556  0.4084E+00  0.3399E+01
      9.660  0.4134E+00  0.3442E+01
      9.763  0.4177E+00  0.3485E+01
      9.867  0.4229E+00  0.3529E+01
      9.971  0.4173E+00  0.3572E+01
     10.074  0.4104E+00  0.3615E+01
     10.178  0.4017E+00  0.3657E+01
     10.281  0.4381E+00  0.3700E+01
     10.385  0.4182E+00  0.3744E+01
     10.489  0.4181E+00  0.3787E+01
     10.592  0.4205E+00  0.3831E+01
     10.696  0.4192E+00  0.3874E+01
     10.800  0.4249E+00  0.3918E+01
     10.903  0.4278E+00  0.3962E+01
     11.007  0.4314E+00  0.4006E+01
     11.110  0.4364E+00  0.4051E+01
     11.214  0.4409E+00  0.4097E+01
     11.318  0.4509E+00  0.4143E+01
     11.421  0.4507E+00  0.4190E+01
     11.525  0.4538E+00  0.4237E+01
     11.628  0.4542E+00  0.4284E+01
     11.732  0.4542E+00  0.4331E+01
     11.836  0.4544E+00  0.4378E+01
     11.939  0.4542E+00  0.4425E+01
     12.043  0.4528E+00  0.4472E+01
     12.147  0.4563E+00  0.4519E+01
     12.250  0.4585E+00  0.4566E+01
     12.354  0.4643E+00  0.4614E+01
     12.457  0.4731E+00  0.4663E+01
     12.561  0.4755E+00  0.4712E+01
     12.665  0.4759E+00  0.4761E+01
     12.768  0.4812E+00  0.4811E+01
     12.872  0.4809E+00  0.4861E+01
     12.976  0.4825E+00  0.4911E+01
     13.079  0.4813E+00  0.4961E+01
     13.183  0.4837E+00  0.5011E+01
     13.286  0.4879E+00  0.5061E+01
     13.390  0.4938E+00  0.5112E+01
     13.494  0.4975E+00  0.5163E+01
     13.597  0.5060E+00  0.5215E+01
     13.701  0.5169E+00  0.5268E+01
     13.805  0.5195E+00  0.5322E+01
     13.908  0.5257E+00  0.5376E+01
     14.012  0.5391E+00  0.5431E+01
     14.115  0.5480E+00  0.5488E+01
     14.219  0.5587E+00  0.5545E+01
     14.323  0.5725E+00  0.5604E+01
     14.426  0.5890E+00  0.5665E+01
     14.530  0.5829E+00  0.5726E+01
     14.633  0.5718E+00  0.5786E+01
     14.737  0.5705E+00  0.5845E+01
     14.841  0.5581E+00  0.5903E+01
     14.944  0.5502E+00  0.5961E+01
     15.048  0.5453E+00  0.6017E+01
     15.152  0.5419E+00  0.6074E+01
     15.255  0.5367E+00  0.6130E+01
     15.359  0.5297E+00  0.6185E+01
     15.462  0.5258E+00  0.6240E+01
     15.566  0.5238E+00  0.6294E+01
     15.670  0.5222E+00  0.6348E+01
     15.773  0.5227E+00  0.6402E+01
     15.877  0.5196E+00  0.6456E+01
     15.981  0.5157E+00  0.6510E+01
     16.084  0.5127E+00  0.6563E+01
     16.188  0.5098E+00  0.6616E+01
     16.291  0.5067E+00  0.6669E+01
     16.395  0.5066E+00  0.6721E+01
     16.499  0.5094E+00  0.6774E+01
     16.602  0.5158E+00  0.6827E+01
     16.706  0.5167E+00  0.6881E+01
     16.810  0.5163E+00  0.6934E+01
     16.913  0.5153E+00  0.6988E+01
     17.017  0.5158E+00  0.7041E+01
     17.120  0.5155E+00  0.7094E+01
     17.224  0.5147E+00  0.7148E+01
     17.328  0.5134E+00  0.7201E+01
     17.431  0.5108E+00  0.7254E+01
     17.535  0.5119E+00  0.7307E+01
     17.638  0.5123E+00  0.7360E+01
     17.742  0.5120E+00  0.7413E+01
     17.846  0.5120E+00  0.7466E+01
     17.949  0.5105E+00  0.7519E+01
     18.053  0.5094E+00  0.7572E+01
     18.157  0.5086E+00  0.7625E+01
     18.260  0.5072E+00  0.7678E+01
     18.364  0.5058E+00  0.7730E+01
     18.467  0.5046E+00  0.7782E+01
     18.571  0.5032E+00  0.7835E+01
     18.675  0.5036E+00  0.7887E+01
     18.778  0.5018E+00  0.7939E+01
     18.882  0.4993E+00  0.7991E+01
     18.986  0.4973E+00  0.8042E+01
     19.089  0.4961E+00  0.8094E+01
     19.193  0.4941E+00  0.8145E+01
     19.296  0.4936E+00  0.8196E+01
     19.400  0.4942E+00  0.8247E+01
     19.504  0.4947E+00  0.8299E+01
     19.607  0.4961E+00  0.8350E+01
     19.711  0.4991E+00  0.8402E+01
     19.815  0.5209E+00  0.8454E+01
     19.918  0.5321E+00  0.8509E+01
     20.022  0.5364E+00  0.8565E+01
     20.125  0.5367E+00  0.8620E+01
     20.229  0.5374E+00  0.8676E+01
     20.333  0.5394E+00  0.8732E+01
     20.436  0.5436E+00  0.8788E+01
     20.540  0.5542E+00  0.8844E+01
     20.643  0.5801E+00  0.8903E+01
     20.747  0.6106E+00  0.8965E+01
     20.851  0.6184E+00  0.9029E+01
     20.954  0.6344E+00  0.9094E+01
     21.058  0.6415E+00  0.9160E+01
     21.162  0.5854E+00  0.9224E+01
     21.265  0.5242E+00  0.9281E+01
     21.369  0.4906E+00  0.9334E+01
     21.472  0.4837E+00  0.9384E+01
     21.576  0.4813E+00  0.9434E+01
     21.680  0.4585E+00  0.9483E+01
     21.783  0.4342E+00  0.9529E+01
     21.887  0.4089E+00  0.9573E+01
     21.991  0.4010E+00  0.9615E+01
     22.094  0.3622E+00  0.9655E+01
     22.198  0.3438E+00  0.9691E+01
     22.301  0.3323E+00  0.9726E+01
     22.405  0.3087E+00  0.9759E+01
     22.509  0.2882E+00  0.9790E+01
     22.612  0.2648E+00  0.9819E+01
     22.716  0.2379E+00  0.9845E+01
     22.820  0.1790E+00  0.9866E+01
     22.923  0.1544E+00  0.9883E+01
     23.027  0.1374E+00  0.9898E+01
     23.130  0.1304E+00  0.9912E+01
     23.234  0.1296E+00  0.9926E+01
     23.338  0.1158E+00  0.9938E+01
     23.441  0.1087E+00  0.9950E+01
     23.545  0.1101E+00  0.9961E+01
     23.648  0.1010E+00  0.9972E+01
     23.752  0.9227E-01  0.9982E+01
     23.856  0.1055E+00  0.9992E+01
     23.959  0.2350E-01  0.9999E+01
     24.063  0.3977E-02  0.1000E+02
     24.167  0.0000E+00  0.1000E+02
     24.270  0.0000E+00  0.1000E+02
     24.374  0.0000E+00  0.1000E+02
     24.477  0.0000E+00  0.1000E+02
     24.581  0.0000E+00  0.1000E+02
     24.685  0.0000E+00  0.1000E+02
     24.788  0.0000E+00  0.1000E+02
     24.892  0.0000E+00  0.1000E+02
     24.996  0.0000E+00  0.1000E+02
     25.099  0.0000E+00  0.1000E+02
     25.203  0.0000E+00  0.1000E+02
     25.306  0.0000E+00  0.1000E+02
     25.410  0.0000E+00  0.1000E+02
     25.514  0.0000E+00  0.1000E+02
     25.617  0.0000E+00  0.1000E+02
     25.721  0.0000E+00  0.1000E+02
     25.825  0.0000E+00  0.1000E+02
     25.928  0.0000E+00  0.1000E+02
     26.032  0.0000E+00  0.1000E+02
     26.135  0.0000E+00  0.1000E+02
     26.13537477     -4.95079919  301      8.56932492      1.00000000
     -4.951  0.0000E+00  0.0000E+00  0.0000E+00
     -4.847  0.0000E+00  0.0000E+00  0.0000E+00
     -4.744  0.0000E+00  0.0000E+00  0.0000E+00
     -4.640  0.0000E+00  0.0000E+00  0.0000E+00
     -4.536  0.0000E+00  0.0000E+00  0.0000E+00
     -4.433  0.0000E+00  0.0000E+00  0.0000E+00
     -4.329  0.0000E+00  0.0000E+00  0.0000E+00
     -4.225  0.0000E+00  0.0000E+00  0.0000E+00
     -4.122  0.0000E+00  0.0000E+00  0.0000E+00
     -4.018  0.0000E+00  0.0000E+00  0.0000E+00
     -3.915  0.0000E+00  0.0000E+00  0.0000E+00
     -3.811  0.0000E+00  0.0000E+00  0.0000E+00
     -3.707  0.0000E+00  0.0000E+00  0.0000E+00
     -3.604  0.0000E+00  0.0000E+00  0.0000E+00
     -3.500  0.0000E+00  0.0000E+00  0.0000E+00
     -3.396  0.0000E+00  0.0000E+00  0.0000E+00
     -3.293  0.0000E+00  0.0000E+00  0.0000E+00
     -3.189  0.0000E+00  0.0000E+00  0.0000E+00
     -3.086  0.0000E+00  0.0000E+00  0.0000E+00
     -2.982  0.0000E+00  0.0000E+00  0.0000E+00
     -2.878  0.8198E-02  0.4171E-04  0.0000E+00
     -2.775  0.1161E-01  0.1761E-03  0.0000E+00
     -2.671  0.1525E-01  0.3608E-03  0.0000E+00
     -2.568  0.1772E-01  0.5734E-03  0.0000E+00
     -2.464  0.2079E-01  0.7985E-03  0.0000E+00
     -2.360  0.2213E-01  0.1096E-02  0.0000E+00
     -2.257  0.2373E-01  0.1397E-02  0.0000E+00
     -2.153  0.2578E-01  0.1694E-02  0.0000E+00
     -2.049  0.2723E-01  0.2042E-02  0.0000E+00
     -1.946  0.2829E-01  0.2418E-02  0.0000E+00
     -1.842  0.2949E-01  0.2796E-02  0.0000E+00
     -1.739  0.3086E-01  0.3172E-02  0.0000E+00
     -1.635  0.3232E-01  0.3554E-02  0.0000E+00
     -1.531  0.3298E-01  0.4012E-02  0.0000E+00
     -1.428  0.3371E-01  0.4471E-02  0.0000E+00
     -1.324  0.3464E-01  0.4917E-02  0.0000E+00
     -1.220  0.3557E-01  0.5373E-02  0.0000E+00
     -1.117  0.3658E-01  0.5826E-02  0.0000E+00
     -1.013  0.3726E-01  0.6326E-02  0.0000E+00
     -0.910  0.3780E-01  0.6848E-02  0.0000E+00
     -0.806  0.3831E-01  0.7379E-02  0.0000E+00
     -0.702  0.3894E-01  0.7898E-02  0.0000E+00
     -0.599  0.3961E-01  0.8417E-02  0.0000E+00
     -0.495  0.4030E-01  0.8941E-02  0.0000E+00
     -0.391  0.4092E-01  0.9484E-02  0.0000E+00
     -0.288  0.4122E-01  0.1008E-01  0.0000E+00
     -0.184  0.4153E-01  0.1067E-01  0.0000E+00
     -0.081  0.4191E-01  0.1126E-01  0.0000E+00
      0.023  0.4228E-01  0.1186E-01  0.0000E+00
      0.127  0.4271E-01  0.1245E-01  0.0000E+00
      0.230  0.4317E-01  0.1304E-01  0.0000E+00
      0.334  0.4364E-01  0.1364E-01  0.0000E+00
      0.437  0.4378E-01  0.1430E-01  0.0000E+00
      0.541  0.4393E-01  0.1496E-01  0.0000E+00
      0.645  0.4408E-01  0.1563E-01  0.0000E+00
      0.748  0.4427E-01  0.1629E-01  0.0000E+00
      0.852  0.4448E-01  0.1696E-01  0.0000E+00
      0.956  0.4468E-01  0.1763E-01  0.0000E+00
      1.059  0.4493E-01  0.1829E-01  0.0000E+00
      1.163  0.4519E-01  0.1896E-01  0.0000E+00
      1.266  0.4529E-01  0.1968E-01  0.0000E+00
      1.370  0.4524E-01  0.2043E-01  0.0000E+00
      1.474  0.4522E-01  0.2118E-01  0.0000E+00
      1.577  0.4521E-01  0.2193E-01  0.0000E+00
      1.681  0.4521E-01  0.2268E-01  0.0000E+00
      1.785  0.4525E-01  0.2344E-01  0.0000E+00
      1.888  0.4529E-01  0.2420E-01  0.0000E+00
      1.992  0.4531E-01  0.2497E-01  0.0000E+00
      2.095  0.4535E-01  0.2575E-01  0.0000E+00
      2.199  0.4531E-01  0.2656E-01  0.0000E+00
      2.303  0.4507E-01  0.2743E-01  0.0000E+00
      2.406  0.4483E-01  0.2831E-01  0.0000E+00
      2.510  0.4460E-01  0.2921E-01  0.0000E+00
      2.614  0.4436E-01  0.3013E-01  0.0000E+00
      2.717  0.4409E-01  0.3109E-01  0.0000E+00
      2.821  0.4380E-01  0.3208E-01  0.0000E+00
      2.924  0.4351E-01  0.3315E-01  0.0000E+00
      3.028  0.4323E-01  0.3432E-01  0.0000E+00
      3.132  0.4298E-01  0.3562E-01  0.0000E+00
      3.235  0.4281E-01  0.3725E-01  0.0000E+00
      3.339  0.4264E-01  0.3929E-01  0.0000E+00
      3.442  0.4324E-01  0.4268E-01  0.0000E+00
      3.546  0.4339E-01  0.4541E-01  0.0000E+00
      3.650  0.4121E-01  0.4445E-01  0.0000E+00
      3.753  0.3877E-01  0.4301E-01  0.0000E+00
      3.857  0.3931E-01  0.4676E-01  0.0000E+00
      3.961  0.3640E-01  0.4420E-01  0.0000E+00
      4.064  0.3568E-01  0.4560E-01  0.0000E+00
      4.168  0.3297E-01  0.4271E-01  0.0000E+00
      4.271  0.3139E-01  0.4188E-01  0.0000E+00
      4.375  0.3271E-01  0.4243E-01  0.0000E+00
      4.479  0.3417E-01  0.4385E-01  0.0000E+00
      4.582  0.3814E-01  0.5081E-01  0.0000E+00
      4.686  0.3897E-01  0.4770E-01  0.0000E+00
      4.790  0.4150E-01  0.4887E-01  0.0000E+00
      4.893  0.3800E-01  0.5042E-01  0.0000E+00
      4.997  0.3770E-01  0.4960E-01  0.0000E+00
      5.100  0.3868E-01  0.5076E-01  0.0000E+00
      5.204  0.4340E-01  0.5528E-01  0.0000E+00
      5.308  0.3967E-01  0.5701E-01  0.0000E+00
      5.411  0.4073E-01  0.5974E-01  0.0000E+00
      5.515  0.3868E-01  0.6052E-01  0.0000E+00
      5.618  0.3832E-01  0.6343E-01  0.0000E+00
      5.722  0.3738E-01  0.6003E-01  0.0000E+00
      5.826  0.3673E-01  0.5678E-01  0.0000E+00
      5.929  0.3733E-01  0.5728E-01  0.0000E+00
      6.033  0.4240E-01  0.6405E-01  0.0000E+00
      6.137  0.3571E-01  0.5710E-01  0.0000E+00
      6.240  0.3444E-01  0.5382E-01  0.0000E+00
      6.344  0.3399E-01  0.5359E-01  0.0000E+00
      6.447  0.3394E-01  0.5061E-01  0.0000E+00
      6.551  0.3211E-01  0.4735E-01  0.0000E+00
      6.655  0.3187E-01  0.4943E-01  0.0000E+00
      6.758  0.3141E-01  0.4733E-01  0.0000E+00
      6.862  0.3402E-01  0.5507E-01  0.0000E+00
      6.966  0.3468E-01  0.6122E-01  0.0000E+00
      7.069  0.3431E-01  0.6133E-01  0.0000E+00
      7.173  0.3319E-01  0.5565E-01  0.0000E+00
      7.276  0.3535E-01  0.5580E-01  0.0000E+00
      7.380  0.3745E-01  0.6002E-01  0.0000E+00
      7.484  0.3768E-01  0.6835E-01  0.0000E+00
      7.587  0.3609E-01  0.6002E-01  0.0000E+00
      7.691  0.3806E-01  0.6062E-01  0.0000E+00
      7.795  0.3567E-01  0.6145E-01  0.0000E+00
      7.898  0.3243E-01  0.5999E-01  0.0000E+00
      8.002  0.3122E-01  0.5856E-01  0.0000E+00
      8.105  0.3032E-01  0.5856E-01  0.0000E+00
      8.209  0.2815E-01  0.5737E-01  0.0000E+00
      8.313  0.2600E-01  0.5563E-01  0.0000E+00
      8.416  0.2617E-01  0.5316E-01  0.0000E+00
      8.520  0.3308E-01  0.5365E-01  0.0000E+00
      8.623  0.4067E-01  0.5303E-01  0.0000E+00
      8.727  0.4294E-01  0.5684E-01  0.0000E+00
      8.831  0.4179E-01  0.5878E-01  0.0000E+00
      8.934  0.4140E-01  0.5862E-01  0.0000E+00
      9.038  0.4219E-01  0.5924E-01  0.0000E+00
      9.142  0.4182E-01  0.5893E-01  0.0000E+00
      9.245  0.4138E-01  0.5900E-01  0.0000E+00
      9.349  0.4110E-01  0.5966E-01  0.0000E+00
      9.452  0.4123E-01  0.5958E-01  0.0000E+00
      9.556  0.3971E-01  0.6003E-01  0.0000E+00
      9.660  0.3921E-01  0.6130E-01  0.0000E+00
      9.763  0.3915E-01  0.6227E-01  0.0000E+00
      9.867  0.3844E-01  0.6368E-01  0.0000E+00
      9.971  0.3749E-01  0.6296E-01  0.0000E+00
     10.074  0.3596E-01  0.6228E-01  0.0000E+00
     10.178  0.3514E-01  0.6078E-01  0.0000E+00
     10.281  0.4888E-01  0.6273E-01  0.0000E+00
     10.385  0.4153E-01  0.6189E-01  0.0000E+00
     10.489  0.4163E-01  0.6204E-01  0.0000E+00
     10.592  0.4211E-01  0.6252E-01  0.0000E+00
     10.696  0.4262E-01  0.6221E-01  0.0000E+00
     10.800  0.4360E-01  0.6309E-01  0.0000E+00
     10.903  0.4404E-01  0.6370E-01  0.0000E+00
     11.007  0.4472E-01  0.6428E-01  0.0000E+00
     11.110  0.4555E-01  0.6510E-01  0.0000E+00
     11.214  0.4646E-01  0.6589E-01  0.0000E+00
     11.318  0.4818E-01  0.6777E-01  0.0000E+00
     11.421  0.4724E-01  0.6823E-01  0.0000E+00
     11.525  0.4674E-01  0.6921E-01  0.0000E+00
     11.628  0.4633E-01  0.6968E-01  0.0000E+00
     11.732  0.4612E-01  0.7003E-01  0.0000E+00
     11.836  0.4594E-01  0.7046E-01  0.0000E+00
     11.939  0.4581E-01  0.7089E-01  0.0000E+00
     12.043  0.4608E-01  0.7103E-01  0.0000E+00
     12.147  0.4651E-01  0.7199E-01  0.0000E+00
     12.250  0.4704E-01  0.7270E-01  0.0000E+00
     12.354  0.4775E-01  0.7416E-01  0.0000E+00
     12.457  0.4801E-01  0.7647E-01  0.0000E+00
     12.561  0.4702E-01  0.7752E-01  0.0000E+00
     12.665  0.4593E-01  0.7813E-01  0.0000E+00
     12.768  0.4669E-01  0.7977E-01  0.0000E+00
     12.872  0.4606E-01  0.8036E-01  0.0000E+00
     12.976  0.4552E-01  0.8136E-01  0.0000E+00
     13.079  0.4505E-01  0.8189E-01  0.0000E+00
     13.183  0.4476E-01  0.8317E-01  0.0000E+00
     13.286  0.4472E-01  0.8490E-01  0.0000E+00
     13.390  0.4487E-01  0.8697E-01  0.0000E+00
     13.494  0.4481E-01  0.8868E-01  0.0000E+00
     13.597  0.4499E-01  0.9172E-01  0.0000E+00
     13.701  0.4483E-01  0.9632E-01  0.0000E+00
     13.805  0.4378E-01  0.9877E-01  0.0000E+00
     13.908  0.4284E-01  0.1022E+00  0.0000E+00
     14.012  0.4233E-01  0.1076E+00  0.0000E+00
     14.115  0.4136E-01  0.1118E+00  0.0000E+00
     14.219  0.4044E-01  0.1168E+00  0.0000E+00
     14.323  0.3967E-01  0.1227E+00  0.0000E+00
     14.426  0.3932E-01  0.1287E+00  0.0000E+00
     14.530  0.3818E-01  0.1276E+00  0.0000E+00
     14.633  0.3686E-01  0.1250E+00  0.0000E+00
     14.737  0.3556E-01  0.1257E+00  0.0000E+00
     14.841  0.3437E-01  0.1223E+00  0.0000E+00
     14.944  0.3317E-01  0.1204E+00  0.0000E+00
     15.048  0.3196E-01  0.1196E+00  0.0000E+00
     15.152  0.3078E-01  0.1195E+00  0.0000E+00
     15.255  0.2974E-01  0.1185E+00  0.0000E+00
     15.359  0.2883E-01  0.1164E+00  0.0000E+00
     15.462  0.2800E-01  0.1153E+00  0.0000E+00
     15.566  0.2723E-01  0.1146E+00  0.0000E+00
     15.670  0.2646E-01  0.1137E+00  0.0000E+00
     15.773  0.2575E-01  0.1135E+00  0.0000E+00
     15.877  0.2511E-01  0.1124E+00  0.0000E+00
     15.981  0.2461E-01  0.1108E+00  0.0000E+00
     16.084  0.2416E-01  0.1093E+00  0.0000E+00
     16.188  0.2367E-01  0.1077E+00  0.0000E+00
     16.291  0.2336E-01  0.1064E+00  0.0000E+00
     16.395  0.2324E-01  0.1054E+00  0.0000E+00
     16.499  0.2325E-01  0.1050E+00  0.0000E+00
     16.602  0.2337E-01  0.1054E+00  0.0000E+00
     16.706  0.2357E-01  0.1042E+00  0.0000E+00
     16.810  0.2371E-01  0.1027E+00  0.0000E+00
     16.913  0.2377E-01  0.1011E+00  0.0000E+00
     17.017  0.2375E-01  0.9978E-01  0.0000E+00
     17.120  0.2386E-01  0.9841E-01  0.0000E+00
     17.224  0.2397E-01  0.9701E-01  0.0000E+00
     17.328  0.2407E-01  0.9564E-01  0.0000E+00
     17.431  0.2415E-01  0.9420E-01  0.0000E+00
     17.535  0.2425E-01  0.9365E-01  0.0000E+00
     17.638  0.2439E-01  0.9279E-01  0.0000E+00
     17.742  0.2458E-01  0.9159E-01  0.0000E+00
     17.846  0.2477E-01  0.9052E-01  0.0000E+00
     17.949  0.2484E-01  0.8932E-01  0.0000E+00
     18.053  0.2485E-01  0.8820E-01  0.0000E+00
     18.157  0.2476E-01  0.8712E-01  0.0000E+00
     18.260  0.2471E-01  0.8590E-01  0.0000E+00
     18.364  0.2471E-01  0.8466E-01  0.0000E+00
     18.467  0.2473E-01  0.8342E-01  0.0000E+00
     18.571  0.2476E-01  0.8216E-01  0.0000E+00
     18.675  0.2481E-01  0.8136E-01  0.0000E+00
     18.778  0.2479E-01  0.8027E-01  0.0000E+00
     18.882  0.2477E-01  0.7908E-01  0.0000E+00
     18.986  0.2476E-01  0.7806E-01  0.0000E+00
     19.089  0.2475E-01  0.7723E-01  0.0000E+00
     19.193  0.2470E-01  0.7628E-01  0.0000E+00
     19.296  0.2461E-01  0.7558E-01  0.0000E+00
     19.400  0.2455E-01  0.7500E-01  0.0000E+00
     19.504  0.2456E-01  0.7448E-01  0.0000E+00
     19.607  0.2447E-01  0.7435E-01  0.0000E+00
     19.711  0.2436E-01  0.7470E-01  0.0000E+00
     19.815  0.2430E-01  0.7861E-01  0.0000E+00
     19.918  0.2422E-01  0.8090E-01  0.0000E+00
     20.022  0.2409E-01  0.8224E-01  0.0000E+00
     20.125  0.2383E-01  0.8318E-01  0.0000E+00
     20.229  0.2355E-01  0.8418E-01  0.0000E+00
     20.333  0.2323E-01  0.8564E-01  0.0000E+00
     20.436  0.2287E-01  0.8769E-01  0.0000E+00
     20.540  0.2259E-01  0.9148E-01  0.0000E+00
     20.643  0.2263E-01  0.9930E-01  0.0000E+00
     20.747  0.2265E-01  0.1078E+00  0.0000E+00
     20.851  0.2214E-01  0.1087E+00  0.0000E+00
     20.954  0.2222E-01  0.1121E+00  0.0000E+00
     21.058  0.2183E-01  0.1133E+00  0.0000E+00
     21.162  0.1964E-01  0.1006E+00  0.0000E+00
     21.265  0.1719E-01  0.8840E-01  0.0000E+00
     21.369  0.1588E-01  0.8366E-01  0.0000E+00
     21.472  0.1554E-01  0.8369E-01  0.0000E+00
     21.576  0.1533E-01  0.8408E-01  0.0000E+00
     21.680  0.1452E-01  0.8121E-01  0.0000E+00
     21.783  0.1340E-01  0.7701E-01  0.0000E+00
     21.887  0.1223E-01  0.7242E-01  0.0000E+00
     21.991  0.1148E-01  0.7064E-01  0.0000E+00
     22.094  0.9935E-02  0.6299E-01  0.0000E+00
     22.198  0.9127E-02  0.5984E-01  0.0000E+00
     22.301  0.8735E-02  0.5802E-01  0.0000E+00
     22.405  0.8133E-02  0.5508E-01  0.0000E+00
     22.509  0.7378E-02  0.5264E-01  0.0000E+00
     22.612  0.6575E-02  0.4923E-01  0.0000E+00
     22.716  0.5676E-02  0.4556E-01  0.0000E+00
     22.820  0.4197E-02  0.3564E-01  0.0000E+00
     22.923  0.3496E-02  0.3240E-01  0.0000E+00
     23.027  0.3071E-02  0.3067E-01  0.0000E+00
     23.130  0.2883E-02  0.3231E-01  0.0000E+00
     23.234  0.2666E-02  0.3786E-01  0.0000E+00
     23.338  0.2244E-02  0.3655E-01  0.0000E+00
     23.441  0.1964E-02  0.3608E-01  0.0000E+00
     23.545  0.2161E-02  0.3608E-01  0.0000E+00
     23.648  0.2087E-02  0.3214E-01  0.0000E+00
     23.752  0.1953E-02  0.2864E-01  0.0000E+00
     23.856  0.2322E-02  0.3142E-01  0.0000E+00
     23.959  0.6676E-03  0.7842E-02  0.0000E+00
     24.063  0.1130E-03  0.1327E-02  0.0000E+00
     24.167  0.0000E+00  0.0000E+00  0.0000E+00
     24.270  0.0000E+00  0.0000E+00  0.0000E+00
     24.374  0.0000E+00  0.0000E+00  0.0000E+00
     24.477  0.0000E+00  0.0000E+00  0.0000E+00
     24.581  0.0000E+00  0.0000E+00  0.0000E+00
     24.685  0.0000E+00  0.0000E+00  0.0000E+00
     24.788  0.0000E+00  0.0000E+00  0.0000E+00
     24.892  0.0000E+00  0.0000E+00  0.0000E+00
     24.996  0.0000E+00  0.0000E+00  0.0000E+00
     25.099  0.0000E+00  0.0000E+00  0.0000E+00
     25.203  0.0000E+00  0.0000E+00  0.0000E+00
     25.306  0.0000E+00  0.0000E+00  0.0000E+00
     25.410  0.0000E+00  0.0000E+00  0.0000E+00
     25.514  0.0000E+00  0.0000E+00  0.0000E+00
     25.617  0.0000E+00  0.0000E+00  0.0000E+00
     25.721  0.0000E+00  0.0000E+00  0.0000E+00
     25.825  0.0000E+00  0.0000E+00  0.0000E+00
     25.928  0.0000E+00  0.0000E+00  0.0000E+00
     26.032  0.0000E+00  0.0000E+00  0.0000E+00
     26.135  0.0000E+00  0.0000E+00  0.0000E+00
