    1    1    1    1
  0.1570187E+02  0.2810749E-09  0.2810749E-09  0.2810749E-09  0.5000000E-15
  1.000000000000000E-004
  CAR 
 Al                                      
    3  220    5
 
  0.0000000E+00  0.0000000E+00  0.0000000E+00  0.1457938E-03
   1       -2.950799
   2       21.502268
   3       21.502268
   4       21.502272
   5       23.307860
 
  0.5263158E-01  0.0000000E+00  0.0000000E+00  0.1166351E-02
   1       -2.872992
   2       20.089678
   3       21.243500
   4       21.243505
   5       23.691495
 
  0.1052632E+00  0.0000000E+00  0.0000000E+00  0.1166351E-02
   1       -2.639885
   2       17.932331
   3       20.772196
   4       20.772202
   5       23.839800
 
  0.1578947E+00  0.0000000E+00  0.0000000E+00  0.1166351E-02
   1       -2.251915
   2       15.744513
   3       20.331948
   4       20.331955
   5       23.668392
 
  0.2105263E+00  0.0000000E+00  0.0000000E+00  0.1166351E-02
   1       -1.710745
   2       13.617308
   3       19.998172
   4       19.998179
   5       23.482676
 
  0.2631579E+00  0.0000000E+00  0.0000000E+00  0.1166351E-02
   1       -1.017953
   2       11.585780
   3       19.786021
   4       19.786028
   5       23.355294
 
  0.3157895E+00  0.0000000E+00  0.0000000E+00  0.1166351E-02
   1       -0.176254
   2        9.665120
   3       19.690937
   4       19.690944
   5       22.653077
 
  0.3684211E+00  0.0000000E+00  0.0000000E+00  0.1166351E-02
   1        0.811740
   2        7.864499
   3       19.722562
   4       19.722568
   5       21.846323
 
  0.4210526E+00  0.0000000E+00  0.0000000E+00  0.1166351E-02
   1        1.942062
   2        6.190643
   3       19.881313
   4       19.881317
   5       21.167151
 
  0.4736842E+00  0.0000000E+00  0.0000000E+00  0.1166351E-02
   1        3.204058
   2        4.659941
   3       20.158492
   4       20.158494
   5       20.631869
 
  0.5263158E-01  0.5263158E-01  0.0000000E+00  0.8747631E-03
   1       -2.847096
   2       20.583509
   3       20.583514
   4       20.765849
   5       23.055989
 
  0.1052632E+00  0.5263158E-01  0.0000000E+00  0.3499052E-02
   1       -2.665768
   2       18.666943
   3       19.962397
   4       20.857098
   5       23.191244
 
  0.1578947E+00  0.5263158E-01  0.0000000E+00  0.3499052E-02
   1       -2.329478
   2       16.503436
   3       19.448861
   4       20.646460
   5       23.868328
 
  0.2105263E+00  0.5263158E-01  0.0000000E+00  0.3499052E-02
   1       -1.839382
   2       14.366432
   3       19.054735
   4       20.359235
   5       23.439374
 
  0.2631579E+00  0.5263158E-01  0.0000000E+00  0.3499052E-02
   1       -1.197220
   2       12.307032
   3       18.786922
   4       20.132798
   5       22.374946
 
  0.3157895E+00  0.5263158E-01  0.0000000E+00  0.3499052E-02
   1       -0.405347
   2       10.352047
   3       18.643444
   4       20.005223
   5       21.397001
 
  0.3684211E+00  0.5263158E-01  0.0000000E+00  0.3499052E-02
   1        0.533773
   2        8.512966
   3       18.629957
   4       19.973858
   5       20.563602
 
  0.4210526E+00  0.5263158E-01  0.0000000E+00  0.3499052E-02
   1        1.616598
   2        6.797757
   3       18.746639
   4       19.703808
   5       20.224738
 
  0.4736842E+00  0.5263158E-01  0.0000000E+00  0.3499052E-02
   1        2.836759
   2        5.216124
   3       18.994938
   4       19.139144
   5       20.444689
 
 -0.4736842E+00  0.5263158E-01  0.0000000E+00  0.3499052E-02
   1        3.687228
   2        4.277187
   3       18.674207
   4       19.375403
   5       20.828915
 
 -0.4210526E+00  0.5263158E-01  0.0000000E+00  0.3499052E-02
   1        2.415998
   2        5.727257
   3       18.336324
   4       19.886079
   5       21.171877
 
 -0.3684211E+00  0.5263158E-01  0.0000000E+00  0.3499052E-02
   1        1.239973
   2        7.354910
   3       18.131537
   4       20.526194
   5       20.963436
 
 -0.3157895E+00  0.5263158E-01  0.0000000E+00  0.3499052E-02
   1        0.204580
   2        9.111731
   3       18.059848
   4       20.873746
   5       21.308792
 
 -0.2631579E+00  0.5263158E-01  0.0000000E+00  0.3499052E-02
   1       -0.685797
   2       10.989618
   3       18.122540
   4       20.915524
   5       22.205381
 
 -0.2105263E+00  0.5263158E-01  0.0000000E+00  0.3499052E-02
   1       -1.428055
   2       12.978725
   3       18.314167
   4       21.072940
   5       23.211249
 
 -0.1578947E+00  0.5263158E-01  0.0000000E+00  0.3499052E-02
   1       -2.019699
   2       15.062591
   3       18.637003
   4       21.336717
   5       24.135375
 
 -0.1052632E+00  0.5263158E-01  0.0000000E+00  0.3499052E-02
   1       -2.458757
   2       17.192112
   3       19.102003
   4       21.631484
   5       23.947114
 
 -0.5263158E-01  0.5263158E-01  0.0000000E+00  0.1749526E-02
   1       -2.743499
   2       19.140556
   3       19.848290
   4       21.701766
   5       23.444985
 
  0.1052632E+00  0.1052632E+00  0.0000000E+00  0.8747631E-03
   1       -2.536319
   2       19.265434
   3       19.265440
   4       19.416442
   5       22.412721
 
  0.1578947E+00  0.1052632E+00  0.0000000E+00  0.3499052E-02
   1       -2.251991
   2       17.315320
   3       18.690147
   4       19.700187
   5       22.428711
 
  0.2105263E+00  0.1052632E+00  0.0000000E+00  0.3499052E-02
   1       -1.813533
   2       15.211423
   3       18.244906
   4       19.665464
   5       22.027523
 
  0.2631579E+00  0.1052632E+00  0.0000000E+00  0.3499052E-02
   1       -1.222845
   2       13.145881
   3       17.924925
   4       19.484375
   5       20.870059
 
  0.3157895E+00  0.1052632E+00  0.0000000E+00  0.3499052E-02
   1       -0.481820
   2       11.167616
   3       17.734443
   4       19.280520
   5       19.892820
 
  0.3684211E+00  0.1052632E+00  0.0000000E+00  0.3499052E-02
   1        0.407081
   2        9.296679
   3       17.672854
   4       18.740939
   5       19.478660
 
  0.4210526E+00  0.1052632E+00  0.0000000E+00  0.3499052E-02
   1        1.440684
   2        7.544812
   3       17.744579
   4       17.997401
   5       19.524761
 
  0.4736842E+00  0.1052632E+00  0.0000000E+00  0.3499052E-02
   1        2.614521
   2        5.921474
   3       17.351796
   4       17.949086
   5       19.743582
 
 -0.4736842E+00  0.1052632E+00  0.0000000E+00  0.3499052E-02
   1        3.880566
   2        4.475676
   3       16.830839
   4       18.285564
   5       20.103368
 
 -0.4210526E+00  0.1052632E+00  0.0000000E+00  0.3499052E-02
   1        3.035181
   2        5.409902
   3       16.444093
   4       18.754204
   5       20.601463
 
 -0.3684211E+00  0.1052632E+00  0.0000000E+00  0.3499052E-02
   1        1.816905
   2        6.986214
   3       16.193553
   4       19.355363
   5       21.232314
 
 -0.3157895E+00  0.1052632E+00  0.0000000E+00  0.3499052E-02
   1        0.735818
   2        8.693145
   3       16.083921
   4       20.089049
   5       21.993761
 
 -0.2631579E+00  0.1052632E+00  0.0000000E+00  0.3499052E-02
   1       -0.201775
   2       10.518347
   3       16.117173
   4       20.951672
   5       22.190441
 
 -0.2105263E+00  0.1052632E+00  0.0000000E+00  0.3499052E-02
   1       -0.992476
   2       12.443572
   3       16.300184
   4       21.917140
   5       22.299576
 
 -0.1578947E+00  0.1052632E+00  0.0000000E+00  0.3499052E-02
   1       -1.633471
   2       14.419689
   3       16.669468
   4       22.400420
   5       23.016390
 
 -0.1052632E+00  0.1052632E+00  0.0000000E+00  0.1749526E-02
   1       -2.122778
   2       16.188358
   3       17.447039
   4       22.309622
   5       23.679951
 
  0.1578947E+00  0.1578947E+00  0.0000000E+00  0.8747631E-03
   1       -2.019604
   2       18.062915
   3       18.062922
   4       18.088392
   5       21.547006
 
  0.2105263E+00  0.1578947E+00  0.0000000E+00  0.3499052E-02
   1       -1.633563
   2       16.109792
   3       17.563295
   4       18.538422
   5       20.516322
 
  0.2631579E+00  0.1578947E+00  0.0000000E+00  0.3499052E-02
   1       -1.094795
   2       14.083696
   3       17.196579
   4       18.566185
   5       19.352899
 
  0.3157895E+00  0.1578947E+00  0.0000000E+00  0.3499052E-02
   1       -0.405480
   2       12.101617
   3       16.959738
   4       18.022047
   5       18.725095
 
  0.3684211E+00  0.1578947E+00  0.0000000E+00  0.3499052E-02
   1        0.432147
   2       10.209583
   3       16.853377
   4       17.108697
   5       18.624748
 
  0.4210526E+00  0.1578947E+00  0.0000000E+00  0.3499052E-02
   1        1.415069
   2        8.427417
   3       16.274336
   4       16.880196
   5       18.679829
 
  0.4736842E+00  0.1578947E+00  0.0000000E+00  0.3499052E-02
   1        2.539630
   2        6.767478
   3       15.566377
   4       17.039550
   5       18.871114
 
 -0.4736842E+00  0.1578947E+00  0.0000000E+00  0.3499052E-02
   1        3.790912
   2        5.247809
   3       14.992040
   4       17.329615
   5       19.199423
 
 -0.4210526E+00  0.1578947E+00  0.0000000E+00  0.3499052E-02
   1        3.792821
   2        5.242844
   3       14.557153
   4       17.754268
   5       19.666258
 
 -0.3684211E+00  0.1578947E+00  0.0000000E+00  0.3499052E-02
   1        2.541162
   2        6.758356
   3       14.265210
   4       18.312472
   5       20.270410
 
 -0.3157895E+00  0.1578947E+00  0.0000000E+00  0.3499052E-02
   1        1.415639
   2        8.406823
   3       14.122342
   4       19.001930
   5       21.003843
 
 -0.2631579E+00  0.1578947E+00  0.0000000E+00  0.3499052E-02
   1        0.432394
   2       10.159880
   3       14.142805
   4       19.823825
   5       21.863257
 
 -0.2105263E+00  0.1578947E+00  0.0000000E+00  0.3499052E-02
   1       -0.405399
   2       11.958944
   3       14.372835
   4       20.770961
   5       22.830398
 
 -0.1578947E+00  0.1578947E+00  0.0000000E+00  0.1749526E-02
   1       -1.094797
   2       13.532859
   3       15.071240
   4       21.837143
   5       23.317632
 
  0.2105263E+00  0.2105263E+00  0.0000000E+00  0.8747631E-03
   1       -1.299876
   2       16.902228
   3       17.015248
   4       17.015255
   5       19.062323
 
  0.2631579E+00  0.2105263E+00  0.0000000E+00  0.3499052E-02
   1       -0.813610
   2       15.075922
   3       16.601425
   4       17.453021
   5       17.850849
 
  0.3157895E+00  0.2105263E+00  0.0000000E+00  0.3499052E-02
   1       -0.176703
   2       13.133134
   3       16.318415
   4       16.556791
   5       17.779305
 
  0.3684211E+00  0.2105263E+00  0.0000000E+00  0.3499052E-02
   1        0.608717
   2       11.239193
   3       15.534812
   4       16.167900
   5       17.802758
 
  0.4210526E+00  0.2105263E+00  0.0000000E+00  0.3499052E-02
   1        1.540197
   2        9.437329
   3       14.637296
   4       16.148864
   5       17.866066
 
  0.4736842E+00  0.2105263E+00  0.0000000E+00  0.3499052E-02
   1        2.612836
   2        7.748165
   3       13.871935
   4       16.263923
   5       18.037169
 
 -0.4736842E+00  0.2105263E+00  0.0000000E+00  0.3499052E-02
   1        3.818760
   2        6.186552
   3       13.245759
   4       16.510475
   5       18.333878
 
 -0.4210526E+00  0.2105263E+00  0.0000000E+00  0.3499052E-02
   1        4.655836
   2        5.254638
   3       12.764044
   4       16.889965
   5       18.766088
 
 -0.3684211E+00  0.2105263E+00  0.0000000E+00  0.3499052E-02
   1        3.407819
   2        6.666894
   3       12.433635
   4       17.402127
   5       19.336442
 
 -0.3157895E+00  0.2105263E+00  0.0000000E+00  0.3499052E-02
   1        2.242109
   2        8.239182
   3       12.272281
   4       18.046872
   5       20.038858
 
 -0.2631579E+00  0.2105263E+00  0.0000000E+00  0.3499052E-02
   1        1.214481
   2        9.859301
   3       12.333110
   4       18.824851
   5       20.865361
 
 -0.2105263E+00  0.2105263E+00  0.0000000E+00  0.1749526E-02
   1        0.331061
   2       11.242649
   3       12.894145
   4       19.733091
   5       21.804069
 
  0.2631579E+00  0.2631579E+00  0.0000000E+00  0.8747631E-03
   1       -0.380191
   2       15.898815
   3       16.141196
   4       16.141204
   5       16.386729
 
  0.3157895E+00  0.2631579E+00  0.0000000E+00  0.3499052E-02
   1        0.203699
   2       14.211830
   3       15.161622
   4       15.812284
   5       16.700102
 
  0.3684211E+00  0.2631579E+00  0.0000000E+00  0.3499052E-02
   1        0.936024
   2       12.358937
   3       14.075372
   4       15.616372
   5       16.987245
 
  0.4210526E+00  0.2631579E+00  0.0000000E+00  0.3499052E-02
   1        1.814313
   2       10.558430
   3       13.120026
   4       15.553249
   5       17.121021
 
  0.4736842E+00  0.2631579E+00  0.0000000E+00  0.3499052E-02
   1        2.833471
   2        8.851861
   3       12.299806
   4       15.622352
   5       17.288264
 
 -0.4736842E+00  0.2631579E+00  0.0000000E+00  0.3499052E-02
   1        3.986883
   2        7.260533
   3       11.622901
   4       15.822899
   5       17.559712
 
 -0.4210526E+00  0.2631579E+00  0.0000000E+00  0.3499052E-02
   1        5.217261
   2        5.843383
   3       11.099074
   4       16.157581
   5       17.960655
 
 -0.3684211E+00  0.2631579E+00  0.0000000E+00  0.3499052E-02
   1        4.412541
   2        6.700198
   3       10.742948
   4       16.625012
   5       18.495072
 
 -0.3157895E+00  0.2631579E+00  0.0000000E+00  0.3499052E-02
   1        3.211539
   2        8.136205
   3       10.614160
   4       17.225378
   5       19.162753
 
 -0.2631579E+00  0.2631579E+00  0.0000000E+00  0.1749526E-02
   1        2.142296
   2        9.335396
   3       11.002352
   4       17.959920
   5       19.957365
 
  0.3157895E+00  0.3157895E+00  0.0000000E+00  0.8747631E-03
   1        0.734209
   2       13.857925
   3       15.085988
   4       15.438501
   5       15.438508
 
  0.3684211E+00  0.3157895E+00  0.0000000E+00  0.3499052E-02
   1        1.412556
   2       12.683034
   3       13.579724
   4       15.197620
   5       16.027492
 
  0.4210526E+00  0.3157895E+00  0.0000000E+00  0.3499052E-02
   1        2.236214
   2       11.523974
   3       11.980127
   4       15.089334
   5       16.398459
 
  0.4736842E+00  0.3157895E+00  0.0000000E+00  0.3499052E-02
   1        3.199615
   2       10.016600
   3       10.914895
   4       15.113737
   5       16.628781
 
 -0.4736842E+00  0.3157895E+00  0.0000000E+00  0.3499052E-02
   1        4.294064
   2        8.439469
   3       10.159975
   4       15.270369
   5       16.896131
 
 -0.4210526E+00  0.3157895E+00  0.0000000E+00  0.3499052E-02
   1        5.492877
   2        6.963224
   3        9.592626
   4       15.559792
   5       17.268594
 
 -0.3684211E+00  0.3157895E+00  0.0000000E+00  0.3499052E-02
   1        5.545678
   2        6.803713
   3        9.259135
   4       15.980958
   5       17.768239
 
 -0.3157895E+00  0.3157895E+00  0.0000000E+00  0.1749526E-02
   1        4.317647
   2        7.812251
   3        9.449353
   4       16.535418
   5       18.401781
 
  0.3684211E+00  0.3684211E+00  0.0000000E+00  0.8747631E-03
   1        2.036853
   2       11.492976
   3       14.473260
   4       14.912245
   5       14.912253
 
  0.4210526E+00  0.3684211E+00  0.0000000E+00  0.3499052E-02
   1        2.803261
   2       10.419581
   3       13.088700
   4       14.759099
   5       15.547698
 
  0.4736842E+00  0.3684211E+00  0.0000000E+00  0.3499052E-02
   1        3.705613
   2        9.484863
   3       11.458684
   4       14.738463
   5       16.005595
 
 -0.4736842E+00  0.3684211E+00  0.0000000E+00  0.3499052E-02
   1        4.727975
   2        8.688237
   3        9.892926
   4       14.850249
   5       16.330994
 
 -0.4210526E+00  0.3684211E+00  0.0000000E+00  0.3499052E-02
   1        5.814400
   2        7.931269
   3        8.598068
   4       15.094348
   5       16.697723
 
 -0.3684211E+00  0.3684211E+00  0.0000000E+00  0.1749526E-02
   1        6.672631
   2        6.782954
   3        8.317672
   4       15.471412
   5       17.170249
 
  0.4210526E+00  0.4210526E+00  0.0000000E+00  0.8747631E-03
   1        3.508665
   2        9.308021
   3       14.063604
   4       14.561235
   5       14.561243
 
  0.4736842E+00  0.4210526E+00  0.0000000E+00  0.3499052E-02
   1        4.338331
   2        8.350519
   3       12.798524
   4       14.495950
   5       15.259698
 
 -0.4736842E+00  0.4210526E+00  0.0000000E+00  0.3499052E-02
   1        5.240535
   2        7.601731
   3       11.257583
   4       14.562923
   5       15.807300
 
 -0.4210526E+00  0.4210526E+00  0.0000000E+00  0.1749526E-02
   1        5.914429
   2        7.353900
   3        9.766818
   4       14.762327
   5       16.231267
 
  0.4736842E+00  0.4736842E+00  0.0000000E+00  0.8747631E-03
   1        5.048076
   2        7.410465
   3       13.858512
   4       14.386043
   5       14.386051
 
 -0.4736842E+00  0.4736842E+00  0.0000000E+00  0.1749526E-02
   1        5.535400
   2        6.974665
   3       12.701850
   4       14.408349
   5       15.163314
 
  0.1578947E+00  0.1052632E+00  0.5263158E-01  0.3499052E-02
   1       -2.432858
   2       17.685471
   3       18.623413
   4       21.074503
   5       23.061882
 
  0.2105263E+00  0.1052632E+00  0.5263158E-01  0.6998105E-02
   1       -2.045474
   2       15.814664
   3       17.879508
   4       21.147585
   5       23.261562
 
  0.2631579E+00  0.1052632E+00  0.5263158E-01  0.6998105E-02
   1       -1.505054
   2       13.756854
   3       17.468629
   4       20.985958
   5       22.184364
 
  0.3157895E+00  0.1052632E+00  0.5263158E-01  0.6998105E-02
   1       -0.813507
   2       11.751487
   3       17.214888
   4       20.814827
   5       21.127446
 
  0.3684211E+00  0.1052632E+00  0.5263158E-01  0.6998105E-02
   1        0.026892
   2        9.844020
   3       17.100524
   4       20.129847
   5       20.792353
 
  0.4210526E+00  0.1052632E+00  0.5263158E-01  0.6998105E-02
   1        1.013274
   2        8.051113
   3       17.122314
   4       19.306229
   5       20.838900
 
  0.4736842E+00  0.1052632E+00  0.5263158E-01  0.6998105E-02
   1        2.141904
   2        6.382833
   3       17.275530
   4       18.614655
   5       21.015103
 
 -0.4736842E+00  0.1052632E+00  0.5263158E-01  0.6998105E-02
   1        3.400082
   2        4.855523
   3       17.535867
   4       18.081902
   5       21.311770
 
  0.2105263E+00  0.1578947E+00  0.5263158E-01  0.3499052E-02
   1       -1.916674
   2       16.380142
   3       17.435763
   4       19.923760
   5       21.957717
 
  0.2631579E+00  0.1578947E+00  0.5263158E-01  0.6998105E-02
   1       -1.427987
   2       14.597618
   3       16.746020
   4       20.118030
   5       20.709804
 
  0.3157895E+00  0.1578947E+00  0.5263158E-01  0.6998105E-02
   1       -0.787979
   2       12.622636
   3       16.403925
   4       19.516986
   5       20.129863
 
  0.3684211E+00  0.1578947E+00  0.5263158E-01  0.6998105E-02
   1        0.001397
   2       10.702094
   3       16.226488
   4       18.513788
   5       20.068274
 
  0.4210526E+00  0.1578947E+00  0.5263158E-01  0.6998105E-02
   1        0.937388
   2        8.881426
   3       16.186823
   4       17.638002
   5       20.100113
 
  0.4736842E+00  0.1578947E+00  0.5263158E-01  0.6998105E-02
   1        2.016713
   2        7.178026
   3       16.250256
   4       16.931814
   5       20.249320
 
 -0.4736842E+00  0.1578947E+00  0.5263158E-01  0.6998105E-02
   1        3.232071
   2        5.605375
   3       16.113941
   4       16.700915
   5       20.526346
 
 -0.4210526E+00  0.1578947E+00  0.5263158E-01  0.6998105E-02
   1        4.074595
   2        4.672166
   3       15.697728
   4       17.022406
   5       20.931282
 
 -0.3684211E+00  0.1578947E+00  0.5263158E-01  0.6998105E-02
   1        2.813801
   2        6.111522
   3       15.369942
   4       17.533588
   5       21.462562
 
 -0.3157895E+00  0.1578947E+00  0.5263158E-01  0.6998105E-02
   1        1.641664
   2        7.726959
   3       15.174603
   4       18.186491
   5       22.036392
 
 -0.2631579E+00  0.1578947E+00  0.5263158E-01  0.6998105E-02
   1        0.609391
   2        9.464248
   3       15.122531
   4       18.977652
   5       22.062135
 
 -0.2105263E+00  0.1578947E+00  0.5263158E-01  0.6998105E-02
   1       -0.278124
   2       11.303747
   3       15.226627
   4       19.901820
   5       22.060737
 
 -0.1578947E+00  0.1578947E+00  0.5263158E-01  0.6998105E-02
   1       -1.018006
   2       13.191990
   3       15.527538
   4       20.952477
   5       22.079698
 
 -0.1052632E+00  0.1578947E+00  0.5263158E-01  0.3499052E-02
   1       -1.607840
   2       14.863463
   3       16.263457
   4       21.860464
   5       22.109408
 
  0.2631579E+00  0.2105263E+00  0.5263158E-01  0.3499052E-02
   1       -1.197233
   2       15.249833
   3       16.380488
   4       18.848150
   5       19.195054
 
  0.3157895E+00  0.2105263E+00  0.5263158E-01  0.6998105E-02
   1       -0.609380
   2       13.555854
   3       15.751595
   4       17.995545
   5       19.172929
 
  0.3684211E+00  0.2105263E+00  0.5263158E-01  0.6998105E-02
   1        0.128074
   2       11.669303
   3       15.475700
   4       16.936028
   5       19.246447
 
  0.4210526E+00  0.2105263E+00  0.5263158E-01  0.6998105E-02
   1        1.012514
   2        9.837274
   3       15.328372
   4       16.052887
   5       19.298191
 
  0.4736842E+00  0.2105263E+00  0.5263158E-01  0.6998105E-02
   1        2.041116
   2        8.107108
   3       14.994609
   4       15.638604
   5       19.428277
 
 -0.4736842E+00  0.2105263E+00  0.5263158E-01  0.6998105E-02
   1        3.207604
   2        6.498168
   3       14.402065
   4       15.761687
   5       19.675366
 
 -0.4210526E+00  0.2105263E+00  0.5263158E-01  0.6998105E-02
   1        4.458734
   2        5.068037
   3       13.889361
   4       16.086077
   5       20.049712
 
 -0.3684211E+00  0.2105263E+00  0.5263158E-01  0.6998105E-02
   1        3.626882
   2        5.983273
   3       13.509552
   4       16.559333
   5       20.554862
 
 -0.3157895E+00  0.2105263E+00  0.5263158E-01  0.6998105E-02
   1        2.416285
   2        7.537002
   3       13.276855
   4       17.173451
   5       21.188335
 
 -0.2631579E+00  0.2105263E+00  0.5263158E-01  0.6998105E-02
   1        1.340382
   2        9.200379
   3       13.208193
   4       17.924043
   5       21.942551
 
 -0.2105263E+00  0.2105263E+00  0.5263158E-01  0.6998105E-02
   1        0.407007
   2       10.909943
   3       13.356488
   4       18.807847
   5       22.798479
 
 -0.1578947E+00  0.2105263E+00  0.5263158E-01  0.3499052E-02
   1       -0.379916
   2       12.388373
   3       13.989121
   4       19.820723
   5       23.039047
 
  0.3157895E+00  0.2631579E+00  0.5263158E-01  0.3499052E-02
   1       -0.278444
   2       14.297268
   3       15.451137
   4       16.566478
   5       17.925428
 
  0.3684211E+00  0.2631579E+00  0.5263158E-01  0.6998105E-02
   1        0.406362
   2       12.695228
   3       14.825024
   4       15.524831
   5       18.343272
 
  0.4210526E+00  0.2631579E+00  0.5263158E-01  0.6998105E-02
   1        1.238466
   2       10.899027
   3       14.237960
   4       14.942918
   5       18.515345
 
  0.4736842E+00  0.2631579E+00  0.5263158E-01  0.6998105E-02
   1        2.214320
   2        9.159036
   3       13.458207
   4       14.863646
   5       18.663720
 
 -0.4736842E+00  0.2631579E+00  0.5263158E-01  0.6998105E-02
   1        3.328700
   2        7.523874
   3       12.755564
   4       14.995474
   5       18.893710
 
 -0.4210526E+00  0.2631579E+00  0.5263158E-01  0.6998105E-02
   1        4.564270
   2        6.021763
   3       12.184596
   4       15.282084
   5       19.236243
 
 -0.3684211E+00  0.2631579E+00  0.5263158E-01  0.6998105E-02
   1        4.574270
   2        5.998739
   3       11.761847
   4       15.713071
   5       19.707531
 
 -0.3157895E+00  0.2631579E+00  0.5263158E-01  0.6998105E-02
   1        3.334264
   2        7.468155
   3       11.505960
   4       16.284969
   5       20.310334
 
 -0.2631579E+00  0.2631579E+00  0.5263158E-01  0.6998105E-02
   1        2.216940
   2        8.997617
   3       11.474219
   4       16.993071
   5       21.034629
 
 -0.2105263E+00  0.2631579E+00  0.5263158E-01  0.3499052E-02
   1        1.239790
   2       10.288606
   3       11.951399
   4       17.835495
   5       21.876349
 
  0.3684211E+00  0.3157895E+00  0.5263158E-01  0.3499052E-02
   1        0.835139
   2       13.531852
   3       13.889219
   4       14.883738
   5       17.182673
 
  0.4210526E+00  0.3157895E+00  0.5263158E-01  0.6998105E-02
   1        1.613584
   2       12.002659
   3       12.893072
   4       14.399496
   5       17.688994
 
  0.4736842E+00  0.3157895E+00  0.5263158E-01  0.6998105E-02
   1        2.535256
   2       10.304491
   3       12.002659
   4       14.290965
   5       17.956829
 
 -0.4736842E+00  0.3157895E+00  0.5263158E-01  0.6998105E-02
   1        3.594607
   2        8.664924
   3       11.235937
   4       14.375853
   5       18.201745
 
 -0.4210526E+00  0.3157895E+00  0.5263158E-01  0.6998105E-02
   1        4.778988
   2        7.132566
   3       10.615385
   4       14.616565
   5       18.526997
 
 -0.3684211E+00  0.3157895E+00  0.5263158E-01  0.6998105E-02
   1        5.620256
   2        6.173803
   3       10.161094
   4       15.002639
   5       18.968303
 
 -0.3157895E+00  0.3157895E+00  0.5263158E-01  0.6998105E-02
   1        4.389719
   2        7.466096
   3        9.933095
   4       15.528674
   5       19.533639
 
 -0.2631579E+00  0.3157895E+00  0.5263158E-01  0.3499052E-02
   1        3.235752
   2        8.573419
   3       10.225119
   4       16.193417
   5       20.225570
 
  0.4210526E+00  0.3684211E+00  0.5263158E-01  0.3499052E-02
   1        2.136577
   2       11.574318
   3       12.956752
   4       14.293851
   5       16.622368
 
  0.4736842E+00  0.3684211E+00  0.5263158E-01  0.6998105E-02
   1        3.001625
   2       10.577372
   3       11.595937
   4       13.912600
   5       17.220687
 
 -0.4736842E+00  0.3684211E+00  0.5263158E-01  0.6998105E-02
   1        4.000535
   2        9.607013
   3       10.155276
   4       13.909230
   5       17.580686
 
 -0.4210526E+00  0.3684211E+00  0.5263158E-01  0.6998105E-02
   1        5.115306
   2        8.302518
   3        9.261204
   4       14.092702
   5       17.919550
 
 -0.3684211E+00  0.3684211E+00  0.5263158E-01  0.6998105E-02
   1        6.270129
   2        6.920238
   3        8.788812
   4       14.429130
   5       18.340522
 
 -0.3157895E+00  0.3684211E+00  0.5263158E-01  0.3499052E-02
   1        5.574309
   2        7.241926
   3        8.863323
   4       14.908989
   5       18.874955
 
  0.4736842E+00  0.4210526E+00  0.5263158E-01  0.3499052E-02
   1        3.607188
   2        9.400025
   3       12.571662
   4       13.923497
   5       16.246698
 
 -0.4736842E+00  0.4210526E+00  0.5263158E-01  0.6998105E-02
   1        4.533078
   2        8.535766
   3       11.288645
   4       13.629143
   5       16.936177
 
 -0.4210526E+00  0.4210526E+00  0.5263158E-01  0.6998105E-02
   1        5.528632
   2        7.875578
   3        9.812794
   4       13.720901
   5       17.390771
 
 -0.3684211E+00  0.4210526E+00  0.5263158E-01  0.3499052E-02
   1        6.293591
   2        7.621199
   3        8.491533
   4       13.998941
   5       17.825773
 
 -0.4736842E+00  0.4736842E+00  0.5263158E-01  0.3499052E-02
   1        5.144141
   2        7.506520
   3       12.379044
   4       13.739701
   5       16.058773
 
 -0.4210526E+00  0.4736842E+00  0.5263158E-01  0.3499052E-02
   1        5.724884
   2        7.170263
   3       11.190454
   4       13.535448
   5       16.841619
 
  0.3157895E+00  0.2105263E+00  0.1052632E+00  0.3499052E-02
   1       -0.890156
   2       13.724336
   3       15.194282
   4       19.470191
   5       20.894342
 
  0.3684211E+00  0.2105263E+00  0.1052632E+00  0.6998105E-02
   1       -0.201892
   2       12.145507
   3       14.520962
   4       18.361870
   5       21.240836
 
  0.4210526E+00  0.2105263E+00  0.1052632E+00  0.6998105E-02
   1        0.634442
   2       10.346875
   3       14.296618
   4       17.381566
   5       21.342506
 
  0.4736842E+00  0.2105263E+00  0.1052632E+00  0.6998105E-02
   1        1.616164
   2        8.596592
   3       14.272845
   4       16.539649
   5       21.458627
 
 -0.4736842E+00  0.2105263E+00  0.1052632E+00  0.6998105E-02
   1        2.739162
   2        6.950943
   3       14.395038
   4       15.847431
   5       21.661771
 
 -0.4210526E+00  0.2105263E+00  0.1052632E+00  0.6998105E-02
   1        3.987242
   2        5.439158
   3       14.601375
   4       15.356827
   5       21.954926
 
  0.3684211E+00  0.2631579E+00  0.1052632E+00  0.3499052E-02
   1        0.026549
   2       12.770321
   3       14.264199
   4       16.855845
   5       20.005932
 
  0.4210526E+00  0.2631579E+00  0.1052632E+00  0.6998105E-02
   1        0.810747
   2       11.284573
   3       13.657412
   4       15.831637
   5       20.454518
 
  0.4736842E+00  0.2631579E+00  0.1052632E+00  0.6998105E-02
   1        1.740615
   2        9.576670
   3       13.497400
   4       14.956831
   5       20.667095
 
 -0.4736842E+00  0.2631579E+00  0.1052632E+00  0.6998105E-02
   1        2.811854
   2        7.918508
   3       13.471503
   4       14.292230
   5       20.883963
 
 -0.4210526E+00  0.2631579E+00  0.1052632E+00  0.6998105E-02
   1        4.016092
   2        6.371012
   3       13.272759
   4       14.102263
   5       21.189099
 
 -0.3684211E+00  0.2631579E+00  0.1052632E+00  0.6998105E-02
   1        4.846496
   2        5.450399
   3       12.891701
   4       14.387446
   5       21.605283
 
 -0.3157895E+00  0.2631579E+00  0.1052632E+00  0.6998105E-02
   1        3.603417
   2        6.859639
   3       12.590325
   4       14.890477
   5       22.136754
 
 -0.2631579E+00  0.2631579E+00  0.1052632E+00  0.6998105E-02