       N       E                     dE             d eps       ncg     rms          rms(c)
DAV:   1    -0.293658500170E+01   -0.29366E+01   -0.59563E+02  2750   0.164E+02
DAV:   2    -0.371904856306E+01   -0.78246E+00   -0.76796E+00  3080   0.192E+01
DAV:   3    -0.372270754382E+01   -0.36590E-02   -0.35479E-02  2780   0.129E+00
DAV:   4    -0.372271326386E+01   -0.57200E-05   -0.52204E-05  2965   0.475E-02
DAV:   5    -0.372271327874E+01   -0.14872E-07   -0.12494E-07  2635   0.189E-03
DAV:   6    -0.372271327895E+01   -0.21275E-09   -0.15187E-09  1825   0.180E-04
   1 F= -.37227133E+01 E0= -.37227133E+01  d E =0.000000E+00
