 vasp.5.3.3 18Dez12 (build Feb 04 2014 23:58:42) complex                        
  
 executed on             LinuxIFC date 2019.04.27  08:19:28
 running on    1 total cores
 distrk:  each k-point on    1 cores,    1 groups
 distr:  one band on NCORES_PER_BAND=   1 cores,    1 groups


--------------------------------------------------------------------------------------------------------


 INCAR:
 POTCAR:   PAW_PBE Al 04Jan2001                   
 POTCAR:   PAW_PBE Al 04Jan2001                   
   VRHFIN =Al: s2p1                                                             
   LEXCH  = PE                                                                  
   EATOM  =    53.5387 eV,    3.9350 Ry                                         
                                                                                
   TITEL  = PAW_PBE Al 04Jan2001                                                
   LULTRA =        F    use ultrasoft PP ?                                      
   IUNSCR =        1    unscreen: 0-lin 1-nonlin 2-no                           
   RPACOR =    1.500    partial core radius                                     
   POMASS =   26.982; ZVAL   =    3.000    mass and valenz                      
   RCORE  =    1.900    outmost cutoff radius                                   
   RWIGS  =    2.650; RWIGS  =    1.402    wigner-seitz radius (au A)           
   ENMAX  =  240.300; ENMIN  =  180.225 eV                                      
   ICORE  =        2    local potential                                         
   LCOR   =        T    correct aug charges                                     
   LPAW   =        T    paw PP                                                  
   EAUG   =  291.052                                                            
   DEXC   =    -.041                                                            
   RMAX   =    2.974    core radius for proj-oper                               
   RAUG   =    1.300    factor for augmentation sphere                          
   RDEP   =    1.966    radius for radial grids                                 
   QCUT   =   -4.203; QGAM   =    8.405    optimization parameters              
                                                                                
   Description                                                                  
     l     E      TYP  RCUT    TYP  RCUT                                        
     0   .000     23  1.900                                                     
     0   .000     23  1.900                                                     
     1   .000     23  1.900                                                     
     1  1.000     23  1.900                                                     
     2   .000      7  1.900                                                     
  local pseudopotential read in
  partial core-charges read in
  atomic valenz-charges read in
  non local Contribution for L=           0  read in
    real space projection operators read in
  non local Contribution for L=           0  read in
    real space projection operators read in
  non local Contribution for L=           1  read in
    real space projection operators read in
  non local Contribution for L=           1  read in
    real space projection operators read in
    PAW grid and wavefunctions read in
 
   number of l-projection  operators is LMAX  =           4
   number of lm-projection operators is LMMAX =           8
 
 PAW_PBE Al 04Jan2001                   :
 energy of atom  1       EATOM=  -53.5387
 kinetic energy error for atom=    0.0025 (will be added to EATOM!!)
 
 
 POSCAR: Al                                      
  positions in direct lattice
  No initial velocities read in
 exchange correlation table for  LEXCH =        8
   RHO(1)=    0.500       N(1)  =     2000
   RHO(2)=  100.500       N(2)  =     4000

 VTST: version 3.0d, (01/09/14)

 CHAIN: initializing optimizer
 
 OPT: Using VASP Dynamics algorithm
 CHAIN: Read ICHAIN            0
 
 POSCAR: Al                                      
  positions in direct lattice
  No initial velocities read in
 


--------------------------------------------------------------------------------------------------------


 ion  position               nearest neighbor table
   1  0.000  0.000  0.000-
 
  LATTYP: Found a face centered cubic cell.
 ALAT       =     3.9750000000
  
  Lattice vectors:
  
 A1 = (   0.0000000000,   1.9875000000,   1.9875000000)
 A2 = (   1.9875000000,   0.0000000000,   1.9875000000)
 A3 = (   1.9875000000,   1.9875000000,   0.0000000000)


Analysis of symmetry for initial positions (statically):
=====================================================================
 Subroutine PRICEL returns:
 Original cell was already a primitive cell.
 

 Routine SETGRP: Setting up the symmetry group for a 
 face centered cubic supercell.


 Subroutine GETGRP returns: Found 48 space group operations
 (whereof 48 operations were pure point group operations)
 out of a pool of 48 trial point group operations.


The static configuration has the point symmetry O_h .


Analysis of symmetry for dynamics (positions and initial velocities):
=====================================================================
 Subroutine PRICEL returns:
 Original cell was already a primitive cell.
 

 Routine SETGRP: Setting up the symmetry group for a 
 face centered cubic supercell.


 Subroutine GETGRP returns: Found 48 space group operations
 (whereof 48 operations were pure point group operations)
 out of a pool of 48 trial point group operations.


The dynamic configuration has the point symmetry O_h .


 irot  :   1
 --------------------------------------------------------------------
 isymop:   1   0   0
           0   1   0
           0   0   1

 gtrans:     0.0000000     0.0000000     0.0000000

 ptrans:     0.0000000     0.0000000     0.0000000
 rotmap:
 (   1->   1) 


 irot  :   2
 --------------------------------------------------------------------
 isymop:  -1   0   0
           0  -1   0
           0   0  -1

 gtrans:     0.0000000     0.0000000     0.0000000

 ptrans:     0.0000000     0.0000000     0.0000000
 rotmap:
 (   1->   1) 


 irot  :   3
 --------------------------------------------------------------------
 isymop:   0   0   1
           1   0   0
           0   1   0

 gtrans:     0.0000000     0.0000000     0.0000000

 ptrans:     0.0000000     0.0000000     0.0000000
 rotmap:
 (   1->   1) 


 irot  :   4
 --------------------------------------------------------------------
 isymop:   0   0  -1
          -1   0   0
           0  -1   0

 gtrans:     0.0000000     0.0000000     0.0000000

 ptrans:     0.0000000     0.0000000     0.0000000
 rotmap:
 (   1->   1) 


 irot  :   5
 --------------------------------------------------------------------
 isymop:   0   1   0
           0   0   1
           1   0   0

 gtrans:     0.0000000     0.0000000     0.0000000

 ptrans:     0.0000000     0.0000000     0.0000000
 rotmap:
 (   1->   1) 


 irot  :   6
 --------------------------------------------------------------------
 isymop:   0  -1   0
           0   0  -1
          -1   0   0

 gtrans:     0.0000000     0.0000000     0.0000000

 ptrans:     0.0000000     0.0000000     0.0000000
 rotmap:
 (   1->   1) 


 irot  :   7
 --------------------------------------------------------------------
 isymop:   1   1   1
           0   0  -1
          -1   0   0

 gtrans:     0.0000000     0.0000000     0.0000000

 ptrans:     0.0000000     0.0000000     0.0000000
 rotmap:
 (   1->   1) 


 irot  :   8
 --------------------------------------------------------------------
 isymop:  -1  -1  -1
           0   0   1
           1   0   0

 gtrans:     0.0000000     0.0000000     0.0000000

 ptrans:     0.0000000     0.0000000     0.0000000
 rotmap:
 (   1->   1) 


 irot  :   9
 --------------------------------------------------------------------
 isymop:   1   1   1
           0  -1   0
           0   0  -1

 gtrans:     0.0000000     0.0000000     0.0000000

 ptrans:     0.0000000     0.0000000     0.0000000
 rotmap:
 (   1->   1) 


 irot  :  10
 --------------------------------------------------------------------
 isymop:  -1  -1  -1
           0   1   0
           0   0   1

 gtrans:     0.0000000     0.0000000     0.0000000

 ptrans:     0.0000000     0.0000000     0.0000000
 rotmap:
 (   1->   1) 


 irot  :  11
 --------------------------------------------------------------------
 isymop:   1   1   1
          -1   0   0
           0  -1   0

 gtrans:     0.0000000     0.0000000     0.0000000

 ptrans:     0.0000000     0.0000000     0.0000000
 rotmap:
 (   1->   1) 


 irot  :  12
 --------------------------------------------------------------------
 isymop:  -1  -1  -1
           1   0   0
           0   1   0

 gtrans:     0.0000000     0.0000000     0.0000000

 ptrans:     0.0000000     0.0000000     0.0000000
 rotmap:
 (   1->   1) 


 irot  :  13
 --------------------------------------------------------------------
 isymop:   0   1   0
           1   0   0
          -1  -1  -1

 gtrans:     0.0000000     0.0000000     0.0000000

 ptrans:     0.0000000     0.0000000     0.0000000
 rotmap:
 (   1->   1) 


 irot  :  14
 --------------------------------------------------------------------
 isymop:   0  -1   0
          -1   0   0
           1   1   1

 gtrans:     0.0000000     0.0000000     0.0000000

 ptrans:     0.0000000     0.0000000     0.0000000
 rotmap:
 (   1->   1) 


 irot  :  15
 --------------------------------------------------------------------
 isymop:   1   0   0
           0   0   1
          -1  -1  -1

 gtrans:     0.0000000     0.0000000     0.0000000

 ptrans:     0.0000000     0.0000000     0.0000000
 rotmap:
 (   1->   1) 


 irot  :  16
 --------------------------------------------------------------------
 isymop:  -1   0   0
           0   0  -1
           1   1   1

 gtrans:     0.0000000     0.0000000     0.0000000

 ptrans:     0.0000000     0.0000000     0.0000000
 rotmap:
 (   1->   1) 


 irot  :  17
 --------------------------------------------------------------------
 isymop:   0   0   1
           0   1   0
          -1  -1  -1

 gtrans:     0.0000000     0.0000000     0.0000000

 ptrans:     0.0000000     0.0000000     0.0000000
 rotmap:
 (   1->   1) 


 irot  :  18
 --------------------------------------------------------------------
 isymop:   0   0  -1
           0  -1   0
           1   1   1

 gtrans:     0.0000000     0.0000000     0.0000000

 ptrans:     0.0000000     0.0000000     0.0000000
 rotmap:
 (   1->   1) 


 irot  :  19
 --------------------------------------------------------------------
 isymop:   0   0  -1
           1   1   1
           0  -1   0

 gtrans:     0.0000000     0.0000000     0.0000000

 ptrans:     0.0000000     0.0000000     0.0000000
 rotmap:
 (   1->   1) 


 irot  :  20
 --------------------------------------------------------------------
 isymop:   0   0   1
          -1  -1  -1
           0   1   0

 gtrans:     0.0000000     0.0000000     0.0000000

 ptrans:     0.0000000     0.0000000     0.0000000
 rotmap:
 (   1->   1) 


 irot  :  21
 --------------------------------------------------------------------
 isymop:   0  -1   0
           1   1   1
          -1   0   0

 gtrans:     0.0000000     0.0000000     0.0000000

 ptrans:     0.0000000     0.0000000     0.0000000
 rotmap:
 (   1->   1) 


 irot  :  22
 --------------------------------------------------------------------
 isymop:   0   1   0
          -1  -1  -1
           1   0   0

 gtrans:     0.0000000     0.0000000     0.0000000

 ptrans:     0.0000000     0.0000000     0.0000000
 rotmap:
 (   1->   1) 


 irot  :  23
 --------------------------------------------------------------------
 isymop:  -1   0   0
           1   1   1
           0   0  -1

 gtrans:     0.0000000     0.0000000     0.0000000

 ptrans:     0.0000000     0.0000000     0.0000000
 rotmap:
 (   1->   1) 


 irot  :  24
 --------------------------------------------------------------------
 isymop:   1   0   0
          -1  -1  -1
           0   0   1

 gtrans:     0.0000000     0.0000000     0.0000000

 ptrans:     0.0000000     0.0000000     0.0000000
 rotmap:
 (   1->   1) 


 irot  :  25
 --------------------------------------------------------------------
 isymop:  -1  -1  -1
           0   1   0
           1   0   0

 gtrans:     0.0000000     0.0000000     0.0000000

 ptrans:     0.0000000     0.0000000     0.0000000
 rotmap:
 (   1->   1) 


 irot  :  26
 --------------------------------------------------------------------
 isymop:   1   1   1
           0  -1   0
          -1   0   0

 gtrans:     0.0000000     0.0000000     0.0000000

 ptrans:     0.0000000     0.0000000     0.0000000
 rotmap:
 (   1->   1) 


 irot  :  27
 --------------------------------------------------------------------
 isymop:  -1  -1  -1
           1   0   0
           0   0   1

 gtrans:     0.0000000     0.0000000     0.0000000

 ptrans:     0.0000000     0.0000000     0.0000000
 rotmap:
 (   1->   1) 


 irot  :  28
 --------------------------------------------------------------------
 isymop:   1   1   1
          -1   0   0
           0   0  -1

 gtrans:     0.0000000     0.0000000     0.0000000

 ptrans:     0.0000000     0.0000000     0.0000000
 rotmap:
 (   1->   1) 


 irot  :  29
 --------------------------------------------------------------------
 isymop:  -1  -1  -1
           0   0   1
           0   1   0

 gtrans:     0.0000000     0.0000000     0.0000000

 ptrans:     0.0000000     0.0000000     0.0000000
 rotmap:
 (   1->   1) 


 irot  :  30
 --------------------------------------------------------------------
 isymop:   1   1   1
           0   0  -1
           0  -1   0

 gtrans:     0.0000000     0.0000000     0.0000000

 ptrans:     0.0000000     0.0000000     0.0000000
 rotmap:
 (   1->   1) 


 irot  :  31
 --------------------------------------------------------------------
 isymop:   0  -1   0
           0   0  -1
           1   1   1

 gtrans:     0.0000000     0.0000000     0.0000000

 ptrans:     0.0000000     0.0000000     0.0000000
 rotmap:
 (   1->   1) 


 irot  :  32
 --------------------------------------------------------------------
 isymop:   0   1   0
           0   0   1
          -1  -1  -1

 gtrans:     0.0000000     0.0000000     0.0000000

 ptrans:     0.0000000     0.0000000     0.0000000
 rotmap:
 (   1->   1) 


 irot  :  33
 --------------------------------------------------------------------
 isymop:  -1   0   0
           0  -1   0
           1   1   1

 gtrans:     0.0000000     0.0000000     0.0000000

 ptrans:     0.0000000     0.0000000     0.0000000
 rotmap:
 (   1->   1) 


 irot  :  34
 --------------------------------------------------------------------
 isymop:   1   0   0
           0   1   0
          -1  -1  -1

 gtrans:     0.0000000     0.0000000     0.0000000

 ptrans:     0.0000000     0.0000000     0.0000000
 rotmap:
 (   1->   1) 


 irot  :  35
 --------------------------------------------------------------------
 isymop:   0   0  -1
          -1   0   0
           1   1   1

 gtrans:     0.0000000     0.0000000     0.0000000

 ptrans:     0.0000000     0.0000000     0.0000000
 rotmap:
 (   1->   1) 


 irot  :  36
 --------------------------------------------------------------------
 isymop:   0   0   1
           1   0   0
          -1  -1  -1

 gtrans:     0.0000000     0.0000000     0.0000000

 ptrans:     0.0000000     0.0000000     0.0000000
 rotmap:
 (   1->   1) 


 irot  :  37
 --------------------------------------------------------------------
 isymop:   1   0   0
          -1  -1  -1
           0   1   0

 gtrans:     0.0000000     0.0000000     0.0000000

 ptrans:     0.0000000     0.0000000     0.0000000
 rotmap:
 (   1->   1) 


 irot  :  38
 --------------------------------------------------------------------
 isymop:  -1   0   0
           1   1   1
           0  -1   0

 gtrans:     0.0000000     0.0000000     0.0000000

 ptrans:     0.0000000     0.0000000     0.0000000
 rotmap:
 (   1->   1) 


 irot  :  39
 --------------------------------------------------------------------
 isymop:   0   0   1
          -1  -1  -1
           1   0   0

 gtrans:     0.0000000     0.0000000     0.0000000

 ptrans:     0.0000000     0.0000000     0.0000000
 rotmap:
 (   1->   1) 


 irot  :  40
 --------------------------------------------------------------------
 isymop:   0   0  -1
           1   1   1
          -1   0   0

 gtrans:     0.0000000     0.0000000     0.0000000

 ptrans:     0.0000000     0.0000000     0.0000000
 rotmap:
 (   1->   1) 


 irot  :  41
 --------------------------------------------------------------------
 isymop:   0   1   0
          -1  -1  -1
           0   0   1

 gtrans:     0.0000000     0.0000000     0.0000000

 ptrans:     0.0000000     0.0000000     0.0000000
 rotmap:
 (   1->   1) 


 irot  :  42
 --------------------------------------------------------------------
 isymop:   0  -1   0
           1   1   1
           0   0  -1

 gtrans:     0.0000000     0.0000000     0.0000000

 ptrans:     0.0000000     0.0000000     0.0000000
 rotmap:
 (   1->   1) 


 irot  :  43
 --------------------------------------------------------------------
 isymop:  -1   0   0
           0   0  -1
           0  -1   0

 gtrans:     0.0000000     0.0000000     0.0000000

 ptrans:     0.0000000     0.0000000     0.0000000
 rotmap:
 (   1->   1) 


 irot  :  44
 --------------------------------------------------------------------
 isymop:   1   0   0
           0   0   1
           0   1   0

 gtrans:     0.0000000     0.0000000     0.0000000

 ptrans:     0.0000000     0.0000000     0.0000000
 rotmap:
 (   1->   1) 


 irot  :  45
 --------------------------------------------------------------------
 isymop:   0  -1   0
          -1   0   0
           0   0  -1

 gtrans:     0.0000000     0.0000000     0.0000000

 ptrans:     0.0000000     0.0000000     0.0000000
 rotmap:
 (   1->   1) 


 irot  :  46
 --------------------------------------------------------------------
 isymop:   0   1   0
           1   0   0
           0   0   1

 gtrans:     0.0000000     0.0000000     0.0000000

 ptrans:     0.0000000     0.0000000     0.0000000
 rotmap:
 (   1->   1) 


 irot  :  47
 --------------------------------------------------------------------
 isymop:   0   0  -1
           0  -1   0
          -1   0   0

 gtrans:     0.0000000     0.0000000     0.0000000

 ptrans:     0.0000000     0.0000000     0.0000000
 rotmap:
 (   1->   1) 


 irot  :  48
 --------------------------------------------------------------------
 isymop:   0   0   1
           0   1   0
           1   0   0

 gtrans:     0.0000000     0.0000000     0.0000000

 ptrans:     0.0000000     0.0000000     0.0000000
 rotmap:
 (   1->   1) 
 
 
 KPOINTS: Automatic generation                    

Automatic generation of k-mesh.
Space group operators:
 irot       det(A)        alpha          n_x          n_y          n_z        tau_x        tau_y        tau_z
    1     1.000000     0.000001     1.000000     0.000000     0.000000     0.000000     0.000000     0.000000
    2    -1.000000     0.000001     1.000000     0.000000     0.000000     0.000000     0.000000     0.000000
    3     1.000000   120.000000    -0.577350    -0.577350    -0.577350     0.000000     0.000000     0.000000
    4    -1.000000   120.000000    -0.577350    -0.577350    -0.577350     0.000000     0.000000     0.000000
    5     1.000000   120.000000     0.577350     0.577350     0.577350     0.000000     0.000000     0.000000
    6    -1.000000   120.000000     0.577350     0.577350     0.577350     0.000000     0.000000     0.000000
    7     1.000000    90.000000     0.000000     0.000000    -1.000000     0.000000     0.000000     0.000000
    8    -1.000000    90.000000     0.000000     0.000000    -1.000000     0.000000     0.000000     0.000000
    9     1.000000   180.000000     0.000000     0.707107     0.707107     0.000000     0.000000     0.000000
   10    -1.000000   180.000000     0.000000     0.707107     0.707107     0.000000     0.000000     0.000000
   11     1.000000    90.000000     0.000000     1.000000     0.000000     0.000000     0.000000     0.000000
   12    -1.000000    90.000000     0.000000     1.000000     0.000000     0.000000     0.000000     0.000000
   13     1.000000   180.000000     0.000000     0.000000     1.000000     0.000000     0.000000     0.000000
   14    -1.000000   180.000000     0.000000     0.000000     1.000000     0.000000     0.000000     0.000000
   15     1.000000   120.000000    -0.577350     0.577350     0.577350     0.000000     0.000000     0.000000
   16    -1.000000   120.000000    -0.577350     0.577350     0.577350     0.000000     0.000000     0.000000
   17     1.000000   120.000000    -0.577350     0.577350    -0.577350     0.000000     0.000000     0.000000
   18    -1.000000   120.000000    -0.577350     0.577350    -0.577350     0.000000     0.000000     0.000000
   19     1.000000    90.000000     0.000000     0.000000     1.000000     0.000000     0.000000     0.000000
   20    -1.000000    90.000000     0.000000     0.000000     1.000000     0.000000     0.000000     0.000000
   21     1.000000    90.000000    -1.000000     0.000000     0.000000     0.000000     0.000000     0.000000
   22    -1.000000    90.000000    -1.000000     0.000000     0.000000     0.000000     0.000000     0.000000
   23     1.000000   180.000000     0.707107     0.000000     0.707107     0.000000     0.000000     0.000000
   24    -1.000000   180.000000     0.707107     0.000000     0.707107     0.000000     0.000000     0.000000
   25     1.000000   120.000000     0.577350    -0.577350     0.577350     0.000000     0.000000     0.000000
   26    -1.000000   120.000000     0.577350    -0.577350     0.577350     0.000000     0.000000     0.000000
   27     1.000000   120.000000    -0.577350    -0.577350     0.577350     0.000000     0.000000     0.000000
   28    -1.000000   120.000000    -0.577350    -0.577350     0.577350     0.000000     0.000000     0.000000
   29     1.000000   180.000000     1.000000     0.000000     0.000000     0.000000     0.000000     0.000000
   30    -1.000000   180.000000     1.000000     0.000000     0.000000     0.000000     0.000000     0.000000
   31     1.000000    90.000000     0.000000    -1.000000     0.000000     0.000000     0.000000     0.000000
   32    -1.000000    90.000000     0.000000    -1.000000     0.000000     0.000000     0.000000     0.000000
   33     1.000000   180.000000     0.707107     0.707107     0.000000     0.000000     0.000000     0.000000
   34    -1.000000   180.000000     0.707107     0.707107     0.000000     0.000000     0.000000     0.000000
   35     1.000000    90.000000     1.000000     0.000000     0.000000     0.000000     0.000000     0.000000
   36    -1.000000    90.000000     1.000000     0.000000     0.000000     0.000000     0.000000     0.000000
   37     1.000000   120.000000     0.577350    -0.577350    -0.577350     0.000000     0.000000     0.000000
   38    -1.000000   120.000000     0.577350    -0.577350    -0.577350     0.000000     0.000000     0.000000
   39     1.000000   180.000000     0.000000     1.000000     0.000000     0.000000     0.000000     0.000000
   40    -1.000000   180.000000     0.000000     1.000000     0.000000     0.000000     0.000000     0.000000
   41     1.000000   120.000000     0.577350     0.577350    -0.577350     0.000000     0.000000     0.000000
   42    -1.000000   120.000000     0.577350     0.577350    -0.577350     0.000000     0.000000     0.000000
   43     1.000000   180.000000     0.000000    -0.707107     0.707107     0.000000     0.000000     0.000000
   44    -1.000000   180.000000     0.000000    -0.707107     0.707107     0.000000     0.000000     0.000000
   45     1.000000   180.000000     0.707107    -0.707107     0.000000     0.000000     0.000000     0.000000
   46    -1.000000   180.000000     0.707107    -0.707107     0.000000     0.000000     0.000000     0.000000
   47     1.000000   180.000000     0.707107     0.000000    -0.707107     0.000000     0.000000     0.000000
   48    -1.000000   180.000000     0.707107     0.000000    -0.707107     0.000000     0.000000     0.000000
 
 Subroutine IBZKPT returns following result:
 ===========================================
 
 Found    220 irreducible k-points:
 
 Following reciprocal coordinates:
            Coordinates               Weight
  0.000000  0.000000  0.000000      1.000000
  0.052632  0.000000  0.000000      8.000000
  0.105263  0.000000  0.000000      8.000000
  0.157895  0.000000  0.000000      8.000000
  0.210526  0.000000  0.000000      8.000000
  0.263158  0.000000  0.000000      8.000000
  0.315789  0.000000  0.000000      8.000000
  0.368421  0.000000  0.000000      8.000000
  0.421053  0.000000  0.000000      8.000000
  0.473684  0.000000  0.000000      8.000000
  0.052632  0.052632  0.000000      6.000000
  0.105263  0.052632  0.000000     24.000000
  0.157895  0.052632  0.000000     24.000000
  0.210526  0.052632  0.000000     24.000000
  0.263158  0.052632  0.000000     24.000000
  0.315789  0.052632  0.000000     24.000000
  0.368421  0.052632  0.000000     24.000000
  0.421053  0.052632  0.000000     24.000000
  0.473684  0.052632  0.000000     24.000000
 -0.473684  0.052632  0.000000     24.000000
 -0.421053  0.052632  0.000000     24.000000
 -0.368421  0.052632  0.000000     24.000000
 -0.315789  0.052632  0.000000     24.000000
 -0.263158  0.052632  0.000000     24.000000
 -0.210526  0.052632  0.000000     24.000000
 -0.157895  0.052632  0.000000     24.000000
 -0.105263  0.052632  0.000000     24.000000
 -0.052632  0.052632  0.000000     12.000000
  0.105263  0.105263  0.000000      6.000000
  0.157895  0.105263  0.000000     24.000000
  0.210526  0.105263  0.000000     24.000000
  0.263158  0.105263  0.000000     24.000000
  0.315789  0.105263  0.000000     24.000000
  0.368421  0.105263  0.000000     24.000000
  0.421053  0.105263  0.000000     24.000000
  0.473684  0.105263  0.000000     24.000000
 -0.473684  0.105263  0.000000     24.000000
 -0.421053  0.105263  0.000000     24.000000
 -0.368421  0.105263  0.000000     24.000000
 -0.315789  0.105263  0.000000     24.000000
 -0.263158  0.105263  0.000000     24.000000
 -0.210526  0.105263  0.000000     24.000000
 -0.157895  0.105263  0.000000     24.000000
 -0.105263  0.105263  0.000000     12.000000
  0.157895  0.157895  0.000000      6.000000
  0.210526  0.157895  0.000000     24.000000
  0.263158  0.157895  0.000000     24.000000
  0.315789  0.157895  0.000000     24.000000
  0.368421  0.157895  0.000000     24.000000
  0.421053  0.157895  0.000000     24.000000
  0.473684  0.157895  0.000000     24.000000
 -0.473684  0.157895  0.000000     24.000000
 -0.421053  0.157895  0.000000     24.000000
 -0.368421  0.157895  0.000000     24.000000
 -0.315789  0.157895  0.000000     24.000000
 -0.263158  0.157895  0.000000     24.000000
 -0.210526  0.157895  0.000000     24.000000
 -0.157895  0.157895  0.000000     12.000000
  0.210526  0.210526  0.000000      6.000000
  0.263158  0.210526  0.000000     24.000000
  0.315789  0.210526  0.000000     24.000000
  0.368421  0.210526  0.000000     24.000000
  0.421053  0.210526  0.000000     24.000000
  0.473684  0.210526  0.000000     24.000000
 -0.473684  0.210526  0.000000     24.000000
 -0.421053  0.210526  0.000000     24.000000
 -0.368421  0.210526  0.000000     24.000000
 -0.315789  0.210526  0.000000     24.000000
 -0.263158  0.210526  0.000000     24.000000
 -0.210526  0.210526  0.000000     12.000000
  0.263158  0.263158  0.000000      6.000000
  0.315789  0.263158  0.000000     24.000000
  0.368421  0.263158  0.000000     24.000000
  0.421053  0.263158  0.000000     24.000000
  0.473684  0.263158  0.000000     24.000000
 -0.473684  0.263158  0.000000     24.000000
 -0.421053  0.263158  0.000000     24.000000
 -0.368421  0.263158  0.000000     24.000000
 -0.315789  0.263158  0.000000     24.000000
 -0.263158  0.263158  0.000000     12.000000
  0.315789  0.315789  0.000000      6.000000
  0.368421  0.315789  0.000000     24.000000
  0.421053  0.315789  0.000000     24.000000
  0.473684  0.315789  0.000000     24.000000
 -0.473684  0.315789  0.000000     24.000000
 -0.421053  0.315789  0.000000     24.000000
 -0.368421  0.315789  0.000000     24.000000
 -0.315789  0.315789  0.000000     12.000000
  0.368421  0.368421  0.000000      6.000000
  0.421053  0.368421  0.000000     24.000000
  0.473684  0.368421  0.000000     24.000000
 -0.473684  0.368421  0.000000     24.000000
 -0.421053  0.368421  0.000000     24.000000
 -0.368421  0.368421  0.000000     12.000000
  0.421053  0.421053  0.000000      6.000000
  0.473684  0.421053  0.000000     24.000000
 -0.473684  0.421053  0.000000     24.000000
 -0.421053  0.421053  0.000000     12.000000
  0.473684  0.473684  0.000000      6.000000
 -0.473684  0.473684  0.000000     12.000000
  0.157895  0.105263  0.052632     24.000000
  0.210526  0.105263  0.052632     48.000000
  0.263158  0.105263  0.052632     48.000000
  0.315789  0.105263  0.052632     48.000000
  0.368421  0.105263  0.052632     48.000000
  0.421053  0.105263  0.052632     48.000000
  0.473684  0.105263  0.052632     48.000000
 -0.473684  0.105263  0.052632     48.000000
  0.210526  0.157895  0.052632     24.000000
  0.263158  0.157895  0.052632     48.000000
  0.315789  0.157895  0.052632     48.000000
  0.368421  0.157895  0.052632     48.000000
  0.421053  0.157895  0.052632     48.000000
  0.473684  0.157895  0.052632     48.000000
 -0.473684  0.157895  0.052632     48.000000
 -0.421053  0.157895  0.052632     48.000000
 -0.368421  0.157895  0.052632     48.000000
 -0.315789  0.157895  0.052632     48.000000
 -0.263158  0.157895  0.052632     48.000000
 -0.210526  0.157895  0.052632     48.000000
 -0.157895  0.157895  0.052632     48.000000
 -0.105263  0.157895  0.052632     24.000000
  0.263158  0.210526  0.052632     24.000000
  0.315789  0.210526  0.052632     48.000000
  0.368421  0.210526  0.052632     48.000000
  0.421053  0.210526  0.052632     48.000000
  0.473684  0.210526  0.052632     48.000000
 -0.473684  0.210526  0.052632     48.000000
 -0.421053  0.210526  0.052632     48.000000
 -0.368421  0.210526  0.052632     48.000000
 -0.315789  0.210526  0.052632     48.000000
 -0.263158  0.210526  0.052632     48.000000
 -0.210526  0.210526  0.052632     48.000000
 -0.157895  0.210526  0.052632     24.000000
  0.315789  0.263158  0.052632     24.000000
  0.368421  0.263158  0.052632     48.000000
  0.421053  0.263158  0.052632     48.000000
  0.473684  0.263158  0.052632     48.000000
 -0.473684  0.263158  0.052632     48.000000
 -0.421053  0.263158  0.052632     48.000000
 -0.368421  0.263158  0.052632     48.000000
 -0.315789  0.263158  0.052632     48.000000
 -0.263158  0.263158  0.052632     48.000000
 -0.210526  0.263158  0.052632     24.000000
  0.368421  0.315789  0.052632     24.000000
  0.421053  0.315789  0.052632     48.000000
  0.473684  0.315789  0.052632     48.000000
 -0.473684  0.315789  0.052632     48.000000
 -0.421053  0.315789  0.052632     48.000000
 -0.368421  0.315789  0.052632     48.000000
 -0.315789  0.315789  0.052632     48.000000
 -0.263158  0.315789  0.052632     24.000000
  0.421053  0.368421  0.052632     24.000000
  0.473684  0.368421  0.052632     48.000000
 -0.473684  0.368421  0.052632     48.000000
 -0.421053  0.368421  0.052632     48.000000
 -0.368421  0.368421  0.052632     48.000000
 -0.315789  0.368421  0.052632     24.000000
  0.473684  0.421053  0.052632     24.000000
 -0.473684  0.421053  0.052632     48.000000
 -0.421053  0.421053  0.052632     48.000000
 -0.368421  0.421053  0.052632     24.000000
 -0.473684  0.473684  0.052632     24.000000
 -0.421053  0.473684  0.052632     24.000000
  0.315789  0.210526  0.105263     24.000000
  0.368421  0.210526  0.105263     48.000000
  0.421053  0.210526  0.105263     48.000000
  0.473684  0.210526  0.105263     48.000000
 -0.473684  0.210526  0.105263     48.000000
 -0.421053  0.210526  0.105263     48.000000
  0.368421  0.263158  0.105263     24.000000
  0.421053  0.263158  0.105263     48.000000
  0.473684  0.263158  0.105263     48.000000
 -0.473684  0.263158  0.105263     48.000000
 -0.421053  0.263158  0.105263     48.000000
 -0.368421  0.263158  0.105263     48.000000
 -0.315789  0.263158  0.105263     48.000000
 -0.263158  0.263158  0.105263     48.000000
 -0.210526  0.263158  0.105263     48.000000
 -0.157895  0.263158  0.105263     24.000000
  0.421053  0.315789  0.105263     24.000000
  0.473684  0.315789  0.105263     48.000000
 -0.473684  0.315789  0.105263     48.000000
 -0.421053  0.315789  0.105263     48.000000
 -0.368421  0.315789  0.105263     48.000000
 -0.315789  0.315789  0.105263     48.000000
 -0.263158  0.315789  0.105263     48.000000
 -0.210526  0.315789  0.105263     24.000000
  0.473684  0.368421  0.105263     24.000000
 -0.473684  0.368421  0.105263     48.000000
 -0.421053  0.368421  0.105263     48.000000
 -0.368421  0.368421  0.105263     48.000000
 -0.315789  0.368421  0.105263     48.000000
 -0.263158  0.368421  0.105263     24.000000
 -0.473684  0.421053  0.105263     24.000000
 -0.421053  0.421053  0.105263     48.000000
 -0.368421  0.421053  0.105263     48.000000
 -0.315789  0.421053  0.105263     24.000000
 -0.421053  0.473684  0.105263     24.000000
 -0.368421  0.473684  0.105263     24.000000
  0.473684  0.315789  0.157895     24.000000
 -0.473684  0.315789  0.157895     48.000000
 -0.421053  0.315789  0.157895     48.000000
 -0.368421  0.315789  0.157895     48.000000
 -0.473684  0.368421  0.157895     24.000000
 -0.421053  0.368421  0.157895     48.000000
 -0.368421  0.368421  0.157895     48.000000
 -0.315789  0.368421  0.157895     48.000000
 -0.263158  0.368421  0.157895     48.000000
 -0.210526  0.368421  0.157895     24.000000
 -0.421053  0.421053  0.157895     24.000000
 -0.368421  0.421053  0.157895     48.000000
 -0.315789  0.421053  0.157895     48.000000
 -0.263158  0.421053  0.157895     24.000000
 -0.368421  0.473684  0.157895     24.000000
 -0.315789  0.473684  0.157895     24.000000
 -0.368421  0.421053  0.210526     24.000000
 -0.315789  0.421053  0.210526     48.000000
 -0.315789  0.473684  0.210526     24.000000
 -0.263158  0.473684  0.210526     24.000000
 
 Following cartesian coordinates:
            Coordinates               Weight
  0.000000  0.000000  0.000000      1.000000
 -0.052632  0.052632  0.052632      8.000000
 -0.105263  0.105263  0.105263      8.000000
 -0.157895  0.157895  0.157895      8.000000
 -0.210526  0.210526  0.210526      8.000000
 -0.263158  0.263158  0.263158      8.000000
 -0.315789  0.315789  0.315789      8.000000
 -0.368421  0.368421  0.368421      8.000000
 -0.421053  0.421053  0.421053      8.000000
 -0.473684  0.473684  0.473684      8.000000
  0.000000  0.000000  0.105263      6.000000
 -0.052632  0.052632  0.157895     24.000000
 -0.105263  0.105263  0.210526     24.000000
 -0.157895  0.157895  0.263158     24.000000
 -0.210526  0.210526  0.315789     24.000000
 -0.263158  0.263158  0.368421     24.000000
 -0.315789  0.315789  0.421053     24.000000
 -0.368421  0.368421  0.473684     24.000000
 -0.421053  0.421053  0.526316     24.000000
  0.526316 -0.526316 -0.421053     24.000000
  0.473684 -0.473684 -0.368421     24.000000
  0.421053 -0.421053 -0.315789     24.000000
  0.368421 -0.368421 -0.263158     24.000000
  0.315789 -0.315789 -0.210526     24.000000
  0.263158 -0.263158 -0.157895     24.000000
  0.210526 -0.210526 -0.105263     24.000000
  0.157895 -0.157895 -0.052632     24.000000
  0.105263 -0.105263  0.000000     12.000000
  0.000000  0.000000  0.210526      6.000000
 -0.052632  0.052632  0.263158     24.000000
 -0.105263  0.105263  0.315789     24.000000
 -0.157895  0.157895  0.368421     24.000000
 -0.210526  0.210526  0.421053     24.000000
 -0.263158  0.263158  0.473684     24.000000
 -0.315789  0.315789  0.526316     24.000000
 -0.368421  0.368421  0.578947     24.000000
  0.578947 -0.578947 -0.368421     24.000000
  0.526316 -0.526316 -0.315789     24.000000
  0.473684 -0.473684 -0.263158     24.000000
  0.421053 -0.421053 -0.210526     24.000000
  0.368421 -0.368421 -0.157895     24.000000
  0.315789 -0.315789 -0.105263     24.000000
  0.263158 -0.263158 -0.052632     24.000000
  0.210526 -0.210526  0.000000     12.000000
  0.000000  0.000000  0.315789      6.000000
 -0.052632  0.052632  0.368421     24.000000
 -0.105263  0.105263  0.421053     24.000000
 -0.157895  0.157895  0.473684     24.000000
 -0.210526  0.210526  0.526316     24.000000
 -0.263158  0.263158  0.578947     24.000000
 -0.315789  0.315789  0.631579     24.000000
  0.631579 -0.631579 -0.315789     24.000000
  0.578947 -0.578947 -0.263158     24.000000
  0.526316 -0.526316 -0.210526     24.000000
  0.473684 -0.473684 -0.157895     24.000000
  0.421053 -0.421053 -0.105263     24.000000
  0.368421 -0.368421 -0.052632     24.000000
  0.315789 -0.315789  0.000000     12.000000
  0.000000  0.000000  0.421053      6.000000
 -0.052632  0.052632  0.473684     24.000000
 -0.105263  0.105263  0.526316     24.000000
 -0.157895  0.157895  0.578947     24.000000
 -0.210526  0.210526  0.631579     24.000000
 -0.263158  0.263158  0.684211     24.000000
  0.684211 -0.684211 -0.263158     24.000000
  0.631579 -0.631579 -0.210526     24.000000
  0.578947 -0.578947 -0.157895     24.000000
  0.526316 -0.526316 -0.105263     24.000000
  0.473684 -0.473684 -0.052632     24.000000
  0.421053 -0.421053  0.000000     12.000000
  0.000000  0.000000  0.526316      6.000000
 -0.052632  0.052632  0.578947     24.000000
 -0.105263  0.105263  0.631579     24.000000
 -0.157895  0.157895  0.684211     24.000000
 -0.210526  0.210526  0.736842     24.000000
  0.736842 -0.736842 -0.210526     24.000000
  0.684211 -0.684211 -0.157895     24.000000
  0.631579 -0.631579 -0.105263     24.000000
  0.578947 -0.578947 -0.052632     24.000000
  0.526316 -0.526316  0.000000     12.000000
  0.000000  0.000000  0.631579      6.000000
 -0.052632  0.052632  0.684211     24.000000
 -0.105263  0.105263  0.736842     24.000000
 -0.157895  0.157895  0.789474     24.000000
  0.789474 -0.789474 -0.157895     24.000000
  0.736842 -0.736842 -0.105263     24.000000
  0.684211 -0.684211 -0.052632     24.000000
  0.631579 -0.631579  0.000000     12.000000
  0.000000  0.000000  0.736842      6.000000
 -0.052632  0.052632  0.789474     24.000000
 -0.105263  0.105263  0.842105     24.000000
  0.842105 -0.842105 -0.105263     24.000000
  0.789474 -0.789474 -0.052632     24.000000
  0.736842 -0.736842  0.000000     12.000000
  0.000000  0.000000  0.842105      6.000000
 -0.052632  0.052632  0.894737     24.000000
  0.894737 -0.894737 -0.052632     24.000000
  0.842105 -0.842105  0.000000     12.000000
  0.000000  0.000000  0.947368      6.000000
  0.947368 -0.947368  0.000000     12.000000
  0.000000  0.105263  0.210526     24.000000
 -0.052632  0.157895  0.263158     48.000000
 -0.105263  0.210526  0.315789     48.000000
 -0.157895  0.263158  0.368421     48.000000
 -0.210526  0.315789  0.421053     48.000000
 -0.263158  0.368421  0.473684     48.000000
 -0.315789  0.421053  0.526316     48.000000
  0.631579 -0.526316 -0.421053     48.000000
  0.000000  0.105263  0.315789     24.000000
 -0.052632  0.157895  0.368421     48.000000
 -0.105263  0.210526  0.421053     48.000000
 -0.157895  0.263158  0.473684     48.000000
 -0.210526  0.315789  0.526316     48.000000
 -0.263158  0.368421  0.578947     48.000000
  0.684211 -0.578947 -0.368421     48.000000
  0.631579 -0.526316 -0.315789     48.000000
  0.578947 -0.473684 -0.263158     48.000000
  0.526316 -0.421053 -0.210526     48.000000
  0.473684 -0.368421 -0.157895     48.000000
  0.421053 -0.315789 -0.105263     48.000000
  0.368421 -0.263158 -0.052632     48.000000
  0.315789 -0.210526  0.000000     24.000000
  0.000000  0.105263  0.421053     24.000000
 -0.052632  0.157895  0.473684     48.000000
 -0.105263  0.210526  0.526316     48.000000
 -0.157895  0.263158  0.578947     48.000000
 -0.210526  0.315789  0.631579     48.000000
  0.736842 -0.631579 -0.315789     48.000000
  0.684211 -0.578947 -0.263158     48.000000
  0.631579 -0.526316 -0.210526     48.000000
  0.578947 -0.473684 -0.157895     48.000000
  0.526316 -0.421053 -0.105263     48.000000
  0.473684 -0.368421 -0.052632     48.000000
  0.421053 -0.315789  0.000000     24.000000
  0.000000  0.105263  0.526316     24.000000
 -0.052632  0.157895  0.578947     48.000000
 -0.105263  0.210526  0.631579     48.000000
 -0.157895  0.263158  0.684211     48.000000
  0.789474 -0.684211 -0.263158     48.000000
  0.736842 -0.631579 -0.210526     48.000000
  0.684211 -0.578947 -0.157895     48.000000
  0.631579 -0.526316 -0.105263     48.000000
  0.578947 -0.473684 -0.052632     48.000000
  0.526316 -0.421053  0.000000     24.000000
  0.000000  0.105263  0.631579     24.000000
 -0.052632  0.157895  0.684211     48.000000
 -0.105263  0.210526  0.736842     48.000000
  0.842105 -0.736842 -0.210526     48.000000
  0.789474 -0.684211 -0.157895     48.000000
  0.736842 -0.631579 -0.105263     48.000000
  0.684211 -0.578947 -0.052632     48.000000
  0.631579 -0.526316  0.000000     24.000000
  0.000000  0.105263  0.736842     24.000000
 -0.052632  0.157895  0.789474     48.000000
  0.894737 -0.789474 -0.157895     48.000000
  0.842105 -0.736842 -0.105263     48.000000
  0.789474 -0.684211 -0.052632     48.000000
  0.736842 -0.631579  0.000000     24.000000
  0.000000  0.105263  0.842105     24.000000
  0.947368 -0.842105 -0.105263     48.000000
  0.894737 -0.789474 -0.052632     48.000000
  0.842105 -0.736842  0.000000     24.000000
  1.000000 -0.894737 -0.052632     24.000000
  0.947368 -0.842105  0.000000     24.000000
  0.000000  0.210526  0.421053     24.000000
 -0.052632  0.263158  0.473684     48.000000
 -0.105263  0.315789  0.526316     48.000000
 -0.157895  0.368421  0.578947     48.000000
  0.789474 -0.578947 -0.368421     48.000000
  0.736842 -0.526316 -0.315789     48.000000
  0.000000  0.210526  0.526316     24.000000
 -0.052632  0.263158  0.578947     48.000000
 -0.105263  0.315789  0.631579     48.000000
  0.842105 -0.631579 -0.315789     48.000000
  0.789474 -0.578947 -0.263158     48.000000
  0.736842 -0.526316 -0.210526     48.000000
  0.684211 -0.473684 -0.157895     48.000000
  0.631579 -0.421053 -0.105263     48.000000
  0.578947 -0.368421 -0.052632     48.000000
  0.526316 -0.315789  0.000000     24.000000
  0.000000  0.210526  0.631579     24.000000
 -0.052632  0.263158  0.684211     48.000000
  0.894737 -0.684211 -0.263158     48.000000
  0.842105 -0.631579 -0.210526     48.000000
  0.789474 -0.578947 -0.157895     48.000000
  0.736842 -0.526316 -0.105263     48.000000
  0.684211 -0.473684 -0.052632     48.000000
  0.631579 -0.421053  0.000000     24.000000
  0.000000  0.210526  0.736842     24.000000
  0.947368 -0.736842 -0.210526     48.000000
  0.894737 -0.684211 -0.157895     48.000000
  0.842105 -0.631579 -0.105263     48.000000
  0.789474 -0.578947 -0.052632     48.000000
  0.736842 -0.526316  0.000000     24.000000
  1.000000 -0.789474 -0.157895     24.000000
  0.947368 -0.736842 -0.105263     48.000000
  0.894737 -0.684211 -0.052632     48.000000
  0.842105 -0.631579  0.000000     24.000000
  1.000000 -0.789474 -0.052632     24.000000
  0.947368 -0.736842  0.000000     24.000000
  0.000000  0.315789  0.631579     24.000000
  0.947368 -0.631579 -0.315789     48.000000
  0.894737 -0.578947 -0.263158     48.000000
  0.842105 -0.526316 -0.210526     48.000000
  1.000000 -0.684211 -0.263158     24.000000
  0.947368 -0.631579 -0.210526     48.000000
  0.894737 -0.578947 -0.157895     48.000000
  0.842105 -0.526316 -0.105263     48.000000
  0.789474 -0.473684 -0.052632     48.000000
  0.736842 -0.421053  0.000000     24.000000
  1.000000 -0.684211 -0.157895     24.000000
  0.947368 -0.631579 -0.105263     48.000000
  0.894737 -0.578947 -0.052632     48.000000
  0.842105 -0.526316  0.000000     24.000000
  1.000000 -0.684211 -0.052632     24.000000
  0.947368 -0.631579  0.000000     24.000000
  1.000000 -0.578947 -0.157895     24.000000
  0.947368 -0.526316 -0.105263     48.000000
  1.000000 -0.578947 -0.052632     24.000000
  0.947368 -0.526316  0.000000     24.000000
 
 TETIRR: Found    955 inequivalent tetrahedra from    41154


--------------------------------------------------------------------------------------------------------




 Dimension of arrays:
   k-points           NKPTS =    220   k-points in BZ     NKDIM =    220   number of bands    NBANDS=      5
   number of dos      NEDOS =    301   number of ions     NIONS =      1
   non local maximal  LDIM  =      4   non local SUM 2l+1 LMDIM =      8
   total plane-waves  NPLWV =   2744
   max r-space proj   IRMAX =      1   max aug-charges    IRDMAX=   7000
   dimension x,y,z NGX =    14 NGY =   14 NGZ =   14
   dimension x,y,z NGXF=    28 NGYF=   28 NGZF=   28
   support grid    NGXF=    28 NGYF=   28 NGZF=   28
   ions per type =               1
 NGX,Y,Z   is equivalent  to a cutoff of   8.28,  8.28,  8.28 a.u.
 NGXF,Y,Z  is equivalent  to a cutoff of  16.56, 16.56, 16.56 a.u.


 I would recommend the setting:
   dimension x,y,z NGX =    14 NGY =   14 NGZ =   14
 SYSTEM =  Al                                      
 POSCAR =  Al                                      

 Startparameter for this run:
   NWRITE =      2    write-flag & timer
   PREC   = accura    normal or accurate (medium, high low for compatibility)
   ISTART =      0    job   : 0-new  1-cont  2-samecut
   ICHARG =     11    charge: 1-file 2-atom 10-const
   ISPIN  =      1    spin polarized calculation?
   LNONCOLLINEAR =      F non collinear calculations
   LSORBIT =      F    spin-orbit coupling
   INIWAV =      1    electr: 0-lowe 1-rand  2-diag
   LASPH  =      F    aspherical Exc in radial PAW
   METAGGA=      F    non-selfconsistent MetaGGA calc.

 Electronic Relaxation 1
   ENCUT  =  250.0 eV  18.37 Ry    4.29 a.u.   3.62  3.62  3.62*2*pi/ulx,y,z
   ENINI  =  250.0     initial cutoff
   ENAUG  =  291.1 eV  augmentation charge cutoff
   NELM   =     60;   NELMIN=  2; NELMDL=  0     # of ELM steps 
   EDIFF  = 0.1E-03   stopping-criterion for ELM
   LREAL  =      F    real-space projection
   NLSPLINE    = F    spline interpolate recip. space projectors
   LCOMPAT=      F    compatible to vasp.4.4
   GGA_COMPAT  = T    GGA compatible to vasp.4.4-vasp.4.6
   LMAXPAW     = -100 max onsite density
   LMAXMIX     =    2 max onsite mixed and CHGCAR
   VOSKOWN=      0    Vosko Wilk Nusair interpolation
   ROPT   =    0.00000
 Ionic relaxation
   EDIFFG = 0.1E-02   stopping-criterion for IOM
   NSW    =      0    number of steps for IOM
   NBLOCK =      1;   KBLOCK =      1    inner block; outer block 
   IBRION =     -1    ionic relax: 0-MD 1-quasi-New 2-CG
   NFREE  =      0    steps in history (QN), initial steepest desc. (CG)
   ISIF   =      2    stress and relaxation
   IWAVPR =     10    prediction:  0-non 1-charg 2-wave 3-comb
   ISYM   =      2    0-nonsym 1-usesym 2-fastsym
   LCORR  =      T    Harris-Foulkes like correction to forces

   POTIM  = 0.5000    time-step for ionic-motion
   TEIN   =    0.0    initial temperature
   TEBEG  =    0.0;   TEEND  =   0.0 temperature during run
   SMASS  =  -3.00    Nose mass-parameter (am)
   estimated Nose-frequenzy (Omega)   =  0.10E-29 period in steps =****** mass=  -0.181E-27a.u.
   SCALEE = 1.0000    scale energy and forces
   NPACO  =    256;   APACO  = 16.0  distance and # of slots for P.C.
   PSTRESS=    0.0 pullay stress

  Mass of Ions in am
   POMASS =  26.98
  Ionic Valenz
   ZVAL   =   3.00
  Atomic Wigner-Seitz radii
   RWIGS  =  -1.00
  virtual crystal weights 
   VCA    =   1.00
   NELECT =       3.0000    total number of electrons
   NUPDOWN=      -1.0000    fix difference up-down

 DOS related values:
   EMIN   =  10.00;   EMAX   =-10.00  energy-range for DOS
   EFERMI =   0.00
   ISMEAR =    -5;   SIGMA  =   0.20  broadening in eV -4-tet -1-fermi 0-gaus

 Electronic relaxation 2 (details)
   IALGO  =     38    algorithm
   LDIAG  =      T    sub-space diagonalisation (order eigenvalues)
   LSUBROT=      T    optimize rotation matrix (better conditioning)
   TURBO    =      0    0=normal 1=particle mesh
   IRESTART =      0    0=no restart 2=restart with 2 vectors
   NREBOOT  =      0    no. of reboots
   NMIN     =      0    reboot dimension
   EREF     =   0.00    reference energy to select bands
   IMIX   =      4    mixing-type and parameters
     AMIX     =   0.40;   BMIX     =  1.00
     AMIX_MAG =   1.60;   BMIX_MAG =  1.00
     AMIN     =   0.10
     WC   =   100.;   INIMIX=   1;  MIXPRE=   1;  MAXMIX= -45

 Intra band minimization:
   WEIMIN = 0.0000     energy-eigenvalue tresh-hold
   EBREAK =  0.50E-05  absolut break condition
   DEPER  =   0.30     relativ break condition  

   TIME   =   0.40     timestep for ELM

  volume/ion in A,a.u.               =      15.70       105.96
  Fermi-wavevector in a.u.,A,eV,Ry     =   0.942898  1.781819 12.096354  0.889057
  Thomas-Fermi vector in A             =   2.070553
 
 Write flags
   LWAVE  =      T    write WAVECAR
   LCHARG =      T    write CHGCAR
   LVTOT  =      F    write LOCPOT, total local potential
   LVHAR  =      F    write LOCPOT, Hartree potential only
   LELF   =      F    write electronic localiz. function (ELF)
   LORBIT =     10    0 simple, 1 ext, 2 COOP (PROOUT)


 Dipole corrections
   LMONO  =      F    monopole corrections only (constant potential shift)
   LDIPOL =      F    correct potential (dipole corrections)
   IDIPOL =      0    1-x, 2-y, 3-z, 4-all directions 
   EPSILON=  1.0000000 bulk dielectric constant

 Exchange correlation treatment:
   GGA     =    --    GGA type
   LEXCH   =     8    internal setting for exchange type
   VOSKOWN=      0    Vosko Wilk Nusair interpolation
   LHFCALC =     F    Hartree Fock is set to
   LHFONE  =     F    Hartree Fock one center treatment
   AEXX    =    0.0000 exact exchange contribution

 Linear response parameters
   LEPSILON=     F    determine dielectric tensor
   LRPA    =     F    only Hartree local field effects (RPA)
   LNABLA  =     F    use nabla operator in PAW spheres
   LVEL    =     F    velocity operator in full k-point grid
   LINTERFAST=   F  fast interpolation
   KINTER  =     0    interpolate to denser k-point grid
   CSHIFT  =0.1000    complex shift for real part using Kramers Kronig
   OMEGAMAX=  -1.0    maximum frequency
   DEG_THRESHOLD= 0.2000000E-02 threshold for treating states as degnerate
   RTIME   =    0.100 relaxation time in fs

 Orbital magnetization related:
   ORBITALMAG=     F  switch on orbital magnetization
   LCHIMAG   =     F  perturbation theory with respect to B field
   DQ        =  0.001000  dq finite difference perturbation B field



--------------------------------------------------------------------------------------------------------


 Static calculation
 charge density and potential remain constant during run
 non-spin polarized calculation
 Variant of blocked Davidson
 Davidson routine will perform the subspace rotation
 perform sub-space diagonalisation
    after iterative eigenvector-optimisation
 no mixing
 using additional bands            3
 reciprocal scheme for non local part
 use partial core corrections
 calculate Harris-corrections to forces 
   (improved forces if not selfconsistent)
 use gradient corrections 
 WARNING: stress and forces are not correct
  (second derivative of E(xc) not defined)
 use of overlap-Matrix (Vanderbilt PP)
 Fermi weights with tetrahedron method with Bloechl corrections


--------------------------------------------------------------------------------------------------------


  energy-cutoff  :      250.00
  volume of cell :       15.70
      direct lattice vectors                 reciprocal lattice vectors
     0.000000000  1.987500000  1.987500000    -0.251572327  0.251572327  0.251572327
     1.987500000  0.000000000  1.987500000     0.251572327 -0.251572327  0.251572327
     1.987500000  1.987500000  0.000000000     0.251572327  0.251572327 -0.251572327

  length of vectors
     2.810749455  2.810749455  2.810749455     0.435736052  0.435736052  0.435736052


 
 k-points in units of 2pi/SCALE and weight: Automatic generation                    
   0.00000000  0.00000000  0.00000000       0.000
  -0.05263158  0.05263158  0.05263158       0.001
  -0.10526316  0.10526316  0.10526316       0.001
  -0.15789474  0.15789474  0.15789474       0.001
  -0.21052632  0.21052632  0.21052632       0.001
  -0.26315789  0.26315789  0.26315789       0.001
  -0.31578947  0.31578947  0.31578947       0.001
  -0.36842105  0.36842105  0.36842105       0.001
  -0.42105263  0.42105263  0.42105263       0.001
  -0.47368421  0.47368421  0.47368421       0.001
   0.00000000  0.00000000  0.10526316       0.001
  -0.05263158  0.05263158  0.15789474       0.003
  -0.10526316  0.10526316  0.21052632       0.003
  -0.15789474  0.15789474  0.26315789       0.003
  -0.21052632  0.21052632  0.31578947       0.003
  -0.26315789  0.26315789  0.36842105       0.003
  -0.31578947  0.31578947  0.42105263       0.003
  -0.36842105  0.36842105  0.47368421       0.003
  -0.42105263  0.42105263  0.52631579       0.003
   0.52631579 -0.52631579 -0.42105263       0.003
   0.47368421 -0.47368421 -0.36842105       0.003
   0.42105263 -0.42105263 -0.31578947       0.003
   0.36842105 -0.36842105 -0.26315789       0.003
   0.31578947 -0.31578947 -0.21052632       0.003
   0.26315789 -0.26315789 -0.15789474       0.003
   0.21052632 -0.21052632 -0.10526316       0.003
   0.15789474 -0.15789474 -0.05263158       0.003
   0.10526316 -0.10526316  0.00000000       0.002
   0.00000000  0.00000000  0.21052632       0.001
  -0.05263158  0.05263158  0.26315789       0.003
  -0.10526316  0.10526316  0.31578947       0.003
  -0.15789474  0.15789474  0.36842105       0.003
  -0.21052632  0.21052632  0.42105263       0.003
  -0.26315789  0.26315789  0.47368421       0.003
  -0.31578947  0.31578947  0.52631579       0.003
  -0.36842105  0.36842105  0.57894737       0.003
   0.57894737 -0.57894737 -0.36842105       0.003
   0.52631579 -0.52631579 -0.31578947       0.003
   0.47368421 -0.47368421 -0.26315789       0.003
   0.42105263 -0.42105263 -0.21052632       0.003
   0.36842105 -0.36842105 -0.15789474       0.003
   0.31578947 -0.31578947 -0.10526316       0.003
   0.26315789 -0.26315789 -0.05263158       0.003
   0.21052632 -0.21052632  0.00000000       0.002
   0.00000000  0.00000000  0.31578947       0.001
  -0.05263158  0.05263158  0.36842105       0.003
  -0.10526316  0.10526316  0.42105263       0.003
  -0.15789474  0.15789474  0.47368421       0.003
  -0.21052632  0.21052632  0.52631579       0.003
  -0.26315789  0.26315789  0.57894737       0.003
  -0.31578947  0.31578947  0.63157895       0.003
   0.63157895 -0.63157895 -0.31578947       0.003
   0.57894737 -0.57894737 -0.26315789       0.003
   0.52631579 -0.52631579 -0.21052632       0.003
   0.47368421 -0.47368421 -0.15789474       0.003
   0.42105263 -0.42105263 -0.10526316       0.003
   0.36842105 -0.36842105 -0.05263158       0.003
   0.31578947 -0.31578947  0.00000000       0.002
   0.00000000  0.00000000  0.42105263       0.001
  -0.05263158  0.05263158  0.47368421       0.003
  -0.10526316  0.10526316  0.52631579       0.003
  -0.15789474  0.15789474  0.57894737       0.003
  -0.21052632  0.21052632  0.63157895       0.003
  -0.26315789  0.26315789  0.68421053       0.003
   0.68421053 -0.68421053 -0.26315789       0.003
   0.63157895 -0.63157895 -0.21052632       0.003
   0.57894737 -0.57894737 -0.15789474       0.003
   0.52631579 -0.52631579 -0.10526316       0.003
   0.47368421 -0.47368421 -0.05263158       0.003
   0.42105263 -0.42105263  0.00000000       0.002
   0.00000000  0.00000000  0.52631579       0.001
  -0.05263158  0.05263158  0.57894737       0.003
  -0.10526316  0.10526316  0.63157895       0.003
  -0.15789474  0.15789474  0.68421053       0.003
  -0.21052632  0.21052632  0.73684211       0.003
   0.73684211 -0.73684211 -0.21052632       0.003
   0.68421053 -0.68421053 -0.15789474       0.003
   0.63157895 -0.63157895 -0.10526316       0.003
   0.57894737 -0.57894737 -0.05263158       0.003
   0.52631579 -0.52631579  0.00000000       0.002
   0.00000000  0.00000000  0.63157895       0.001
  -0.05263158  0.05263158  0.68421053       0.003
  -0.10526316  0.10526316  0.73684211       0.003
  -0.15789474  0.15789474  0.78947368       0.003
   0.78947368 -0.78947368 -0.15789474       0.003
   0.73684211 -0.73684211 -0.10526316       0.003
   0.68421053 -0.68421053 -0.05263158       0.003
   0.63157895 -0.63157895  0.00000000       0.002
   0.00000000  0.00000000  0.73684211       0.001
  -0.05263158  0.05263158  0.78947368       0.003
  -0.10526316  0.10526316  0.84210526       0.003
   0.84210526 -0.84210526 -0.10526316       0.003
   0.78947368 -0.78947368 -0.05263158       0.003
   0.73684211 -0.73684211  0.00000000       0.002
   0.00000000  0.00000000  0.84210526       0.001
  -0.05263158  0.05263158  0.89473684       0.003
   0.89473684 -0.89473684 -0.05263158       0.003
   0.84210526 -0.84210526  0.00000000       0.002
   0.00000000  0.00000000  0.94736842       0.001
   0.94736842 -0.94736842  0.00000000       0.002
   0.00000000  0.10526316  0.21052632       0.003
  -0.05263158  0.15789474  0.26315789       0.007
  -0.10526316  0.21052632  0.31578947       0.007
  -0.15789474  0.26315789  0.36842105       0.007
  -0.21052632  0.31578947  0.42105263       0.007
  -0.26315789  0.36842105  0.47368421       0.007
  -0.31578947  0.42105263  0.52631579       0.007
   0.63157895 -0.52631579 -0.42105263       0.007
   0.00000000  0.10526316  0.31578947       0.003
  -0.05263158  0.15789474  0.36842105       0.007
  -0.10526316  0.21052632  0.42105263       0.007
  -0.15789474  0.26315789  0.47368421       0.007
  -0.21052632  0.31578947  0.52631579       0.007
  -0.26315789  0.36842105  0.57894737       0.007
   0.68421053 -0.57894737 -0.36842105       0.007
   0.63157895 -0.52631579 -0.31578947       0.007
   0.57894737 -0.47368421 -0.26315789       0.007
   0.52631579 -0.42105263 -0.21052632       0.007
   0.47368421 -0.36842105 -0.15789474       0.007
   0.42105263 -0.31578947 -0.10526316       0.007
   0.36842105 -0.26315789 -0.05263158       0.007
   0.31578947 -0.21052632  0.00000000       0.003
   0.00000000  0.10526316  0.42105263       0.003
  -0.05263158  0.15789474  0.47368421       0.007
  -0.10526316  0.21052632  0.52631579       0.007
  -0.15789474  0.26315789  0.57894737       0.007
  -0.21052632  0.31578947  0.63157895       0.007
   0.73684211 -0.63157895 -0.31578947       0.007
   0.68421053 -0.57894737 -0.26315789       0.007
   0.63157895 -0.52631579 -0.21052632       0.007
   0.57894737 -0.47368421 -0.15789474       0.007
   0.52631579 -0.42105263 -0.10526316       0.007
   0.47368421 -0.36842105 -0.05263158       0.007
   0.42105263 -0.31578947  0.00000000       0.003
   0.00000000  0.10526316  0.52631579       0.003
  -0.05263158  0.15789474  0.57894737       0.007
  -0.10526316  0.21052632  0.63157895       0.007
  -0.15789474  0.26315789  0.68421053       0.007
   0.78947368 -0.68421053 -0.26315789       0.007
   0.73684211 -0.63157895 -0.21052632       0.007
   0.68421053 -0.57894737 -0.15789474       0.007
   0.63157895 -0.52631579 -0.10526316       0.007
   0.57894737 -0.47368421 -0.05263158       0.007
   0.52631579 -0.42105263  0.00000000       0.003
   0.00000000  0.10526316  0.63157895       0.003
  -0.05263158  0.15789474  0.68421053       0.007
  -0.10526316  0.21052632  0.73684211       0.007
   0.84210526 -0.73684211 -0.21052632       0.007
   0.78947368 -0.68421053 -0.15789474       0.007
   0.73684211 -0.63157895 -0.10526316       0.007
   0.68421053 -0.57894737 -0.05263158       0.007
   0.63157895 -0.52631579  0.00000000       0.003
   0.00000000  0.10526316  0.73684211       0.003
  -0.05263158  0.15789474  0.78947368       0.007
   0.89473684 -0.78947368 -0.15789474       0.007
   0.84210526 -0.73684211 -0.10526316       0.007
   0.78947368 -0.68421053 -0.05263158       0.007
   0.73684211 -0.63157895  0.00000000       0.003
   0.00000000  0.10526316  0.84210526       0.003
   0.94736842 -0.84210526 -0.10526316       0.007
   0.89473684 -0.78947368 -0.05263158       0.007
   0.84210526 -0.73684211  0.00000000       0.003
   1.00000000 -0.89473684 -0.05263158       0.003
   0.94736842 -0.84210526  0.00000000       0.003
   0.00000000  0.21052632  0.42105263       0.003
  -0.05263158  0.26315789  0.47368421       0.007
  -0.10526316  0.31578947  0.52631579       0.007
  -0.15789474  0.36842105  0.57894737       0.007
   0.78947368 -0.57894737 -0.36842105       0.007
   0.73684211 -0.52631579 -0.31578947       0.007
   0.00000000  0.21052632  0.52631579       0.003
  -0.05263158  0.26315789  0.57894737       0.007
  -0.10526316  0.31578947  0.63157895       0.007
   0.84210526 -0.63157895 -0.31578947       0.007
   0.78947368 -0.57894737 -0.26315789       0.007
   0.73684211 -0.52631579 -0.21052632       0.007
   0.68421053 -0.47368421 -0.15789474       0.007
   0.63157895 -0.42105263 -0.10526316       0.007
   0.57894737 -0.36842105 -0.05263158       0.007
   0.52631579 -0.31578947  0.00000000       0.003
   0.00000000  0.21052632  0.63157895       0.003
  -0.05263158  0.26315789  0.68421053       0.007
   0.89473684 -0.68421053 -0.26315789       0.007
   0.84210526 -0.63157895 -0.21052632       0.007
   0.78947368 -0.57894737 -0.15789474       0.007
   0.73684211 -0.52631579 -0.10526316       0.007
   0.68421053 -0.47368421 -0.05263158       0.007
   0.63157895 -0.42105263  0.00000000       0.003
   0.00000000  0.21052632  0.73684211       0.003
   0.94736842 -0.73684211 -0.21052632       0.007
   0.89473684 -0.68421053 -0.15789474       0.007
   0.84210526 -0.63157895 -0.10526316       0.007
   0.78947368 -0.57894737 -0.05263158       0.007
   0.73684211 -0.52631579  0.00000000       0.003
   1.00000000 -0.78947368 -0.15789474       0.003
   0.94736842 -0.73684211 -0.10526316       0.007
   0.89473684 -0.68421053 -0.05263158       0.007
   0.84210526 -0.63157895  0.00000000       0.003
   1.00000000 -0.78947368 -0.05263158       0.003
   0.94736842 -0.73684211  0.00000000       0.003
   0.00000000  0.31578947  0.63157895       0.003
   0.94736842 -0.63157895 -0.31578947       0.007
   0.89473684 -0.57894737 -0.26315789       0.007
   0.84210526 -0.52631579 -0.21052632       0.007
   1.00000000 -0.68421053 -0.26315789       0.003
   0.94736842 -0.63157895 -0.21052632       0.007
   0.89473684 -0.57894737 -0.15789474       0.007
   0.84210526 -0.52631579 -0.10526316       0.007
   0.78947368 -0.47368421 -0.05263158       0.007
   0.73684211 -0.42105263  0.00000000       0.003
   1.00000000 -0.68421053 -0.15789474       0.003
   0.94736842 -0.63157895 -0.10526316       0.007
   0.89473684 -0.57894737 -0.05263158       0.007
   0.84210526 -0.52631579  0.00000000       0.003
   1.00000000 -0.68421053 -0.05263158       0.003
   0.94736842 -0.63157895  0.00000000       0.003
   1.00000000 -0.57894737 -0.15789474       0.003
   0.94736842 -0.52631579 -0.10526316       0.007
   1.00000000 -0.57894737 -0.05263158       0.003
   0.94736842 -0.52631579  0.00000000       0.003
 
 k-points in reciprocal lattice and weights: Automatic generation                    
   0.00000000  0.00000000  0.00000000       0.000
   0.05263158  0.00000000  0.00000000       0.001
   0.10526316  0.00000000  0.00000000       0.001
   0.15789474  0.00000000  0.00000000       0.001
   0.21052632  0.00000000  0.00000000       0.001
   0.26315789  0.00000000  0.00000000       0.001
   0.31578947  0.00000000  0.00000000       0.001
   0.36842105  0.00000000  0.00000000       0.001
   0.42105263  0.00000000  0.00000000       0.001
   0.47368421  0.00000000  0.00000000       0.001
   0.05263158  0.05263158  0.00000000       0.001
   0.10526316  0.05263158  0.00000000       0.003
   0.15789474  0.05263158  0.00000000       0.003
   0.21052632  0.05263158  0.00000000       0.003
   0.26315789  0.05263158  0.00000000       0.003
   0.31578947  0.05263158  0.00000000       0.003
   0.36842105  0.05263158  0.00000000       0.003
   0.42105263  0.05263158  0.00000000       0.003
   0.47368421  0.05263158  0.00000000       0.003
  -0.47368421  0.05263158  0.00000000       0.003
  -0.42105263  0.05263158  0.00000000       0.003
  -0.36842105  0.05263158  0.00000000       0.003
  -0.31578947  0.05263158  0.00000000       0.003
  -0.26315789  0.05263158  0.00000000       0.003
  -0.21052632  0.05263158  0.00000000       0.003
  -0.15789474  0.05263158  0.00000000       0.003
  -0.10526316  0.05263158  0.00000000       0.003
  -0.05263158  0.05263158  0.00000000       0.002
   0.10526316  0.10526316  0.00000000       0.001
   0.15789474  0.10526316  0.00000000       0.003
   0.21052632  0.10526316  0.00000000       0.003
   0.26315789  0.10526316  0.00000000       0.003
   0.31578947  0.10526316  0.00000000       0.003
   0.36842105  0.10526316  0.00000000       0.003
   0.42105263  0.10526316  0.00000000       0.003
   0.47368421  0.10526316  0.00000000       0.003
  -0.47368421  0.10526316  0.00000000       0.003
  -0.42105263  0.10526316  0.00000000       0.003
  -0.36842105  0.10526316  0.00000000       0.003
  -0.31578947  0.10526316  0.00000000       0.003
  -0.26315789  0.10526316  0.00000000       0.003
  -0.21052632  0.10526316  0.00000000       0.003
  -0.15789474  0.10526316  0.00000000       0.003
  -0.10526316  0.10526316  0.00000000       0.002
   0.15789474  0.15789474  0.00000000       0.001
   0.21052632  0.15789474  0.00000000       0.003
   0.26315789  0.15789474  0.00000000       0.003
   0.31578947  0.15789474  0.00000000       0.003
   0.36842105  0.15789474  0.00000000       0.003
   0.42105263  0.15789474  0.00000000       0.003
   0.47368421  0.15789474  0.00000000       0.003
  -0.47368421  0.15789474  0.00000000       0.003
  -0.42105263  0.15789474  0.00000000       0.003
  -0.36842105  0.15789474  0.00000000       0.003
  -0.31578947  0.15789474  0.00000000       0.003
  -0.26315789  0.15789474  0.00000000       0.003
  -0.21052632  0.15789474  0.00000000       0.003
  -0.15789474  0.15789474  0.00000000       0.002
   0.21052632  0.21052632  0.00000000       0.001
   0.26315789  0.21052632  0.00000000       0.003
   0.31578947  0.21052632  0.00000000       0.003
   0.36842105  0.21052632  0.00000000       0.003
   0.42105263  0.21052632  0.00000000       0.003
   0.47368421  0.21052632  0.00000000       0.003
  -0.47368421  0.21052632  0.00000000       0.003
  -0.42105263  0.21052632  0.00000000       0.003
  -0.36842105  0.21052632  0.00000000       0.003
  -0.31578947  0.21052632  0.00000000       0.003
  -0.26315789  0.21052632  0.00000000       0.003
  -0.21052632  0.21052632  0.00000000       0.002
   0.26315789  0.26315789  0.00000000       0.001
   0.31578947  0.26315789  0.00000000       0.003
   0.36842105  0.26315789  0.00000000       0.003
   0.42105263  0.26315789  0.00000000       0.003
   0.47368421  0.26315789  0.00000000       0.003
  -0.47368421  0.26315789  0.00000000       0.003
  -0.42105263  0.26315789  0.00000000       0.003
  -0.36842105  0.26315789  0.00000000       0.003
  -0.31578947  0.26315789  0.00000000       0.003
  -0.26315789  0.26315789  0.00000000       0.002
   0.31578947  0.31578947  0.00000000       0.001
   0.36842105  0.31578947  0.00000000       0.003
   0.42105263  0.31578947  0.00000000       0.003
   0.47368421  0.31578947  0.00000000       0.003
  -0.47368421  0.31578947  0.00000000       0.003
  -0.42105263  0.31578947  0.00000000       0.003
  -0.36842105  0.31578947  0.00000000       0.003
  -0.31578947  0.31578947  0.00000000       0.002
   0.36842105  0.36842105  0.00000000       0.001
   0.42105263  0.36842105  0.00000000       0.003
   0.47368421  0.36842105  0.00000000       0.003
  -0.47368421  0.36842105  0.00000000       0.003
  -0.42105263  0.36842105  0.00000000       0.003
  -0.36842105  0.36842105  0.00000000       0.002
   0.42105263  0.42105263  0.00000000       0.001
   0.47368421  0.42105263  0.00000000       0.003
  -0.47368421  0.42105263  0.00000000       0.003
  -0.42105263  0.42105263  0.00000000       0.002
   0.47368421  0.47368421  0.00000000       0.001
  -0.47368421  0.47368421  0.00000000       0.002
   0.15789474  0.10526316  0.05263158       0.003
   0.21052632  0.10526316  0.05263158       0.007
   0.26315789  0.10526316  0.05263158       0.007
   0.31578947  0.10526316  0.05263158       0.007
   0.36842105  0.10526316  0.05263158       0.007
   0.42105263  0.10526316  0.05263158       0.007
   0.47368421  0.10526316  0.05263158       0.007
  -0.47368421  0.10526316  0.05263158       0.007
   0.21052632  0.15789474  0.05263158       0.003
   0.26315789  0.15789474  0.05263158       0.007
   0.31578947  0.15789474  0.05263158       0.007
   0.36842105  0.15789474  0.05263158       0.007
   0.42105263  0.15789474  0.05263158       0.007
   0.47368421  0.15789474  0.05263158       0.007
  -0.47368421  0.15789474  0.05263158       0.007
  -0.42105263  0.15789474  0.05263158       0.007
  -0.36842105  0.15789474  0.05263158       0.007
  -0.31578947  0.15789474  0.05263158       0.007
  -0.26315789  0.15789474  0.05263158       0.007
  -0.21052632  0.15789474  0.05263158       0.007
  -0.15789474  0.15789474  0.05263158       0.007
  -0.10526316  0.15789474  0.05263158       0.003
   0.26315789  0.21052632  0.05263158       0.003
   0.31578947  0.21052632  0.05263158       0.007
   0.36842105  0.21052632  0.05263158       0.007
   0.42105263  0.21052632  0.05263158       0.007
   0.47368421  0.21052632  0.05263158       0.007
  -0.47368421  0.21052632  0.05263158       0.007
  -0.42105263  0.21052632  0.05263158       0.007
  -0.36842105  0.21052632  0.05263158       0.007
  -0.31578947  0.21052632  0.05263158       0.007
  -0.26315789  0.21052632  0.05263158       0.007
  -0.21052632  0.21052632  0.05263158       0.007
  -0.15789474  0.21052632  0.05263158       0.003
   0.31578947  0.26315789  0.05263158       0.003
   0.36842105  0.26315789  0.05263158       0.007
   0.42105263  0.26315789  0.05263158       0.007
   0.47368421  0.26315789  0.05263158       0.007
  -0.47368421  0.26315789  0.05263158       0.007
  -0.42105263  0.26315789  0.05263158       0.007
  -0.36842105  0.26315789  0.05263158       0.007
  -0.31578947  0.26315789  0.05263158       0.007
  -0.26315789  0.26315789  0.05263158       0.007
  -0.21052632  0.26315789  0.05263158       0.003
   0.36842105  0.31578947  0.05263158       0.003
   0.42105263  0.31578947  0.05263158       0.007
   0.47368421  0.31578947  0.05263158       0.007
  -0.47368421  0.31578947  0.05263158       0.007
  -0.42105263  0.31578947  0.05263158       0.007
  -0.36842105  0.31578947  0.05263158       0.007
  -0.31578947  0.31578947  0.05263158       0.007
  -0.26315789  0.31578947  0.05263158       0.003
   0.42105263  0.36842105  0.05263158       0.003
   0.47368421  0.36842105  0.05263158       0.007
  -0.47368421  0.36842105  0.05263158       0.007
  -0.42105263  0.36842105  0.05263158       0.007
  -0.36842105  0.36842105  0.05263158       0.007
  -0.31578947  0.36842105  0.05263158       0.003
   0.47368421  0.42105263  0.05263158       0.003
  -0.47368421  0.42105263  0.05263158       0.007
  -0.42105263  0.42105263  0.05263158       0.007
  -0.36842105  0.42105263  0.05263158       0.003
  -0.47368421  0.47368421  0.05263158       0.003
  -0.42105263  0.47368421  0.05263158       0.003
   0.31578947  0.21052632  0.10526316       0.003
   0.36842105  0.21052632  0.10526316       0.007
   0.42105263  0.21052632  0.10526316       0.007
   0.47368421  0.21052632  0.10526316       0.007
  -0.47368421  0.21052632  0.10526316       0.007
  -0.42105263  0.21052632  0.10526316       0.007
   0.36842105  0.26315789  0.10526316       0.003
   0.42105263  0.26315789  0.10526316       0.007
   0.47368421  0.26315789  0.10526316       0.007
  -0.47368421  0.26315789  0.10526316       0.007
  -0.42105263  0.26315789  0.10526316       0.007
  -0.36842105  0.26315789  0.10526316       0.007
  -0.31578947  0.26315789  0.10526316       0.007
  -0.26315789  0.26315789  0.10526316       0.007
  -0.21052632  0.26315789  0.10526316       0.007
  -0.15789474  0.26315789  0.10526316       0.003
   0.42105263  0.31578947  0.10526316       0.003
   0.47368421  0.31578947  0.10526316       0.007
  -0.47368421  0.31578947  0.10526316       0.007
  -0.42105263  0.31578947  0.10526316       0.007
  -0.36842105  0.31578947  0.10526316       0.007
  -0.31578947  0.31578947  0.10526316       0.007
  -0.26315789  0.31578947  0.10526316       0.007
  -0.21052632  0.31578947  0.10526316       0.003
   0.47368421  0.36842105  0.10526316       0.003
  -0.47368421  0.36842105  0.10526316       0.007
  -0.42105263  0.36842105  0.10526316       0.007
  -0.36842105  0.36842105  0.10526316       0.007
  -0.31578947  0.36842105  0.10526316       0.007
  -0.26315789  0.36842105  0.10526316       0.003
  -0.47368421  0.42105263  0.10526316       0.003
  -0.42105263  0.42105263  0.10526316       0.007
  -0.36842105  0.42105263  0.10526316       0.007
  -0.31578947  0.42105263  0.10526316       0.003
  -0.42105263  0.47368421  0.10526316       0.003
  -0.36842105  0.47368421  0.10526316       0.003
   0.47368421  0.31578947  0.15789474       0.003
  -0.47368421  0.31578947  0.15789474       0.007
  -0.42105263  0.31578947  0.15789474       0.007
  -0.36842105  0.31578947  0.15789474       0.007
  -0.47368421  0.36842105  0.15789474       0.003
  -0.42105263  0.36842105  0.15789474       0.007
  -0.36842105  0.36842105  0.15789474       0.007
  -0.31578947  0.36842105  0.15789474       0.007
  -0.26315789  0.36842105  0.15789474       0.007
  -0.21052632  0.36842105  0.15789474       0.003
  -0.42105263  0.42105263  0.15789474       0.003
  -0.36842105  0.42105263  0.15789474       0.007
  -0.31578947  0.42105263  0.15789474       0.007
  -0.26315789  0.42105263  0.15789474       0.003
  -0.36842105  0.47368421  0.15789474       0.003
  -0.31578947  0.47368421  0.15789474       0.003
  -0.36842105  0.42105263  0.21052632       0.003
  -0.31578947  0.42105263  0.21052632       0.007
  -0.31578947  0.47368421  0.21052632       0.003
  -0.26315789  0.47368421  0.21052632       0.003
 
 position of ions in fractional coordinates (direct lattice) 
   0.00000000  0.00000000  0.00000000
 
 position of ions in cartesian coordinates  (Angst):
   0.00000000  0.00000000  0.00000000
 


--------------------------------------------------------------------------------------------------------


 k-point  1 :   0.0000 0.0000 0.0000  plane waves:     137
 k-point  2 :   0.0526 0.0000 0.0000  plane waves:     138
 k-point  3 :   0.1053 0.0000 0.0000  plane waves:     147
 k-point  4 :   0.1579 0.0000 0.0000  plane waves:     150
 k-point  5 :   0.2105 0.0000 0.0000  plane waves:     150
 k-point  6 :   0.2632 0.0000 0.0000  plane waves:     144
 k-point  7 :   0.3158 0.0000 0.0000  plane waves:     144
 k-point  8 :   0.3684 0.0000 0.0000  plane waves:     144
 k-point  9 :   0.4211 0.0000 0.0000  plane waves:     147
 k-point 10 :   0.4737 0.0000 0.0000  plane waves:     138
 k-point 11 :   0.0526 0.0526 0.0000  plane waves:     141
 k-point 12 :   0.1053 0.0526 0.0000  plane waves:     146
 k-point 13 :   0.1579 0.0526 0.0000  plane waves:     149
 k-point 14 :   0.2105 0.0526 0.0000  plane waves:     147
 k-point 15 :   0.2632 0.0526 0.0000  plane waves:     145
 k-point 16 :   0.3158 0.0526 0.0000  plane waves:     145
 k-point 17 :   0.3684 0.0526 0.0000  plane waves:     144
 k-point 18 :   0.4211 0.0526 0.0000  plane waves:     146
 k-point 19 :   0.4737 0.0526 0.0000  plane waves:     145
 k-point 20 :  -0.4737 0.0526 0.0000  plane waves:     140
 k-point 21 :  -0.4211 0.0526 0.0000  plane waves:     145
 k-point 22 :  -0.3684 0.0526 0.0000  plane waves:     145
 k-point 23 :  -0.3158 0.0526 0.0000  plane waves:     144
 k-point 24 :  -0.2632 0.0526 0.0000  plane waves:     145
 k-point 25 :  -0.2105 0.0526 0.0000  plane waves:     147
 k-point 26 :  -0.1579 0.0526 0.0000  plane waves:     147
 k-point 27 :  -0.1053 0.0526 0.0000  plane waves:     148
 k-point 28 :  -0.0526 0.0526 0.0000  plane waves:     147
 k-point 29 :   0.1053 0.1053 0.0000  plane waves:     145
 k-point 30 :   0.1579 0.1053 0.0000  plane waves:     148
 k-point 31 :   0.2105 0.1053 0.0000  plane waves:     143
 k-point 32 :   0.2632 0.1053 0.0000  plane waves:     143
 k-point 33 :   0.3158 0.1053 0.0000  plane waves:     143
 k-point 34 :   0.3684 0.1053 0.0000  plane waves:     145
 k-point 35 :   0.4211 0.1053 0.0000  plane waves:     147
 k-point 36 :   0.4737 0.1053 0.0000  plane waves:     142
 k-point 37 :  -0.4737 0.1053 0.0000  plane waves:     141
 k-point 38 :  -0.4211 0.1053 0.0000  plane waves:     142
 k-point 39 :  -0.3684 0.1053 0.0000  plane waves:     144
 k-point 40 :  -0.3158 0.1053 0.0000  plane waves:     146
 k-point 41 :  -0.2632 0.1053 0.0000  plane waves:     143
 k-point 42 :  -0.2105 0.1053 0.0000  plane waves:     145
 k-point 43 :  -0.1579 0.1053 0.0000  plane waves:     143
 k-point 44 :  -0.1053 0.1053 0.0000  plane waves:     145
 k-point 45 :   0.1579 0.1579 0.0000  plane waves:     141
 k-point 46 :   0.2105 0.1579 0.0000  plane waves:     145
 k-point 47 :   0.2632 0.1579 0.0000  plane waves:     141
 k-point 48 :   0.3158 0.1579 0.0000  plane waves:     140
 k-point 49 :   0.3684 0.1579 0.0000  plane waves:     142
 k-point 50 :   0.4211 0.1579 0.0000  plane waves:     144
 k-point 51 :   0.4737 0.1579 0.0000  plane waves:     142
 k-point 52 :  -0.4737 0.1579 0.0000  plane waves:     140
 k-point 53 :  -0.4211 0.1579 0.0000  plane waves:     142
 k-point 54 :  -0.3684 0.1579 0.0000  plane waves:     138
 k-point 55 :  -0.3158 0.1579 0.0000  plane waves:     143
 k-point 56 :  -0.2632 0.1579 0.0000  plane waves:     141
 k-point 57 :  -0.2105 0.1579 0.0000  plane waves:     142
 k-point 58 :  -0.1579 0.1579 0.0000  plane waves:     143
 k-point 59 :   0.2105 0.2105 0.0000  plane waves:     141
 k-point 60 :   0.2632 0.2105 0.0000  plane waves:     141
 k-point 61 :   0.3158 0.2105 0.0000  plane waves:     141
 k-point 62 :   0.3684 0.2105 0.0000  plane waves:     141
 k-point 63 :   0.4211 0.2105 0.0000  plane waves:     143
 k-point 64 :   0.4737 0.2105 0.0000  plane waves:     140
 k-point 65 :  -0.4737 0.2105 0.0000  plane waves:     140
 k-point 66 :  -0.4211 0.2105 0.0000  plane waves:     140
 k-point 67 :  -0.3684 0.2105 0.0000  plane waves:     139
 k-point 68 :  -0.3158 0.2105 0.0000  plane waves:     139
 k-point 69 :  -0.2632 0.2105 0.0000  plane waves:     142
 k-point 70 :  -0.2105 0.2105 0.0000  plane waves:     144
 k-point 71 :   0.2632 0.2632 0.0000  plane waves:     141
 k-point 72 :   0.3158 0.2632 0.0000  plane waves:     139
 k-point 73 :   0.3684 0.2632 0.0000  plane waves:     139
 k-point 74 :   0.4211 0.2632 0.0000  plane waves:     139
 k-point 75 :   0.4737 0.2632 0.0000  plane waves:     139
 k-point 76 :  -0.4737 0.2632 0.0000  plane waves:     141
 k-point 77 :  -0.4211 0.2632 0.0000  plane waves:     138
 k-point 78 :  -0.3684 0.2632 0.0000  plane waves:     137
 k-point 79 :  -0.3158 0.2632 0.0000  plane waves:     136
 k-point 80 :  -0.2632 0.2632 0.0000  plane waves:     138
 k-point 81 :   0.3158 0.3158 0.0000  plane waves:     141
 k-point 82 :   0.3684 0.3158 0.0000  plane waves:     137
 k-point 83 :   0.4211 0.3158 0.0000  plane waves:     139
 k-point 84 :   0.4737 0.3158 0.0000  plane waves:     137
 k-point 85 :  -0.4737 0.3158 0.0000  plane waves:     137
[...]
  band No.  band energies     occupation 
      1       0.8107      2.00000
      2      11.2846      0.00000
      3      13.6574      0.00000
      4      15.8316      0.00000
      5      20.4545      0.00000

 k-point 173 :       0.4737    0.2632    0.1053
  band No.  band energies     occupation 
      1       1.7406      2.00000
      2       9.5767     -0.11624
      3      13.4974      0.00000
      4      14.9568      0.00000
      5      20.6671      0.00000

 k-point 174 :      -0.4737    0.2632    0.1053
  band No.  band energies     occupation 
      1       2.8119      2.00000
      2       7.9185      1.91021
      3      13.4715      0.00000
      4      14.2922      0.00000
      5      20.8840      0.00000

 k-point 175 :      -0.4211    0.2632    0.1053
  band No.  band energies     occupation 
      1       4.0161      2.00000
      2       6.3710      2.00000
      3      13.2728      0.00000
      4      14.1023      0.00000
      5      21.1891      0.00000

 k-point 176 :      -0.3684    0.2632    0.1053
  band No.  band energies     occupation 
      1       4.8465      2.00000
      2       5.4504      2.00000
      3      12.8917      0.00000
      4      14.3874      0.00000
      5      21.6053      0.00000

 k-point 177 :      -0.3158    0.2632    0.1053
  band No.  band energies     occupation 
      1       3.6034      2.00000
      2       6.8596      2.00000
      3      12.5903      0.00000
      4      14.8905      0.00000
      5      22.1368      0.00000

 k-point 178 :      -0.2632    0.2632    0.1053
  band No.  band energies     occupation 
      1       2.4405      2.00000
      2       8.4295      1.22062
      3      12.4374      0.00000
      4      15.5504      0.00000
      5      22.7164      0.00000

 k-point 179 :      -0.2105    0.2632    0.1053
  band No.  band energies     occupation 
      1       1.4153      2.00000
      2      10.0484     -0.02010
      3      12.4998      0.00000
      4      16.3543      0.00000
      5      22.7306      0.00000

 k-point 180 :      -0.1579    0.2632    0.1053
  band No.  band energies     occupation 
      1       0.5333      2.00000
      2      11.4335      0.00000
      3      13.0532      0.00000
      4      17.2937      0.00000
      5      22.2461      0.00000

 k-point 181 :       0.4211    0.3158    0.1053
  band No.  band energies     occupation 
      1       1.1378      2.00000
      2      12.0058      0.00000
      3      13.4020      0.00000
      4      14.4663      0.00000
      5      19.2725      0.00000

 k-point 182 :       0.4737    0.3158    0.1053
  band No.  band energies     occupation 
      1       2.0143      2.00000
      2      10.6099      0.00000
      3      12.7840      0.00000
      4      13.6251      0.00000
      5      19.8235      0.00000

 k-point 183 :      -0.4737    0.3158    0.1053
  band No.  band energies     occupation 
      1       3.0319      2.00000
      2       8.9936      0.28996
      3      12.3153      0.00000
      4      13.2379      0.00000
      5      20.1340      0.00000

 k-point 184 :      -0.4211    0.3158    0.1053
  band No.  band energies     occupation 
      1       4.1837      2.00000
      2       7.4322      2.14587
      3      11.7457      0.00000
      4      13.3028      0.00000
      5      20.4480      0.00000

 k-point 185 :      -0.3684    0.3158    0.1053
  band No.  band energies     occupation 
      1       5.4109      2.00000
      2       6.0285      2.00000
      3      11.2543      0.00000
      4      13.6028      0.00000
      5      20.8499      0.00000

 k-point 186 :      -0.3158    0.3158    0.1053
  band No.  band energies     occupation 
      1       4.6044      2.00000
      2       6.8919      2.00000
      3      10.9124      0.00000
      4      14.0728      0.00000
      5      21.3635      0.00000

 k-point 187 :      -0.2632    0.3158    0.1053
  band No.  band energies     occupation 
      1       3.4073      2.00000
      2       8.3262      1.64938
      3      10.7882      0.00000
      4      14.6925      0.00000
      5      21.9900      0.00000

 k-point 188 :      -0.2105    0.3158    0.1053
  band No.  band energies     occupation 
      1       2.3409      2.00000
      2       9.5257     -0.20454
      3      11.1741      0.00000
      4      15.4549      0.00000
      5      22.7267      0.00000

 k-point 189 :       0.4737    0.3684    0.1053
  band No.  band energies     occupation 
      1       2.4359      2.00000
      2      11.4322      0.00000
      3      11.7718      0.00000
      4      13.1796      0.00000
      5      18.7185      0.00000

 k-point 190 :      -0.4737    0.3684    0.1053
  band No.  band energies     occupation 
      1       3.3972      2.00000
      2      10.1013      0.00000
      3      10.9840      0.00000
      4      12.7173      0.00000
      5      19.3643      0.00000

 k-point 191 :      -0.4211    0.3684    0.1053
  band No.  band energies     occupation 
      1       4.4900      2.00000
      2       8.5873      0.98355
      3      10.3034      0.00000
      4      12.7292      0.00000
      5      19.7726      0.00000

 k-point 192 :      -0.3684    0.3684    0.1053
  band No.  band energies     occupation 
      1       5.6863      2.00000
      2       7.1361      2.00395
      3       9.7600     -0.00968
      4      12.9769      0.00000
      5      20.1813      0.00000

 k-point 193 :      -0.3158    0.3684    0.1053
  band No.  band energies     occupation 
      1       5.7319      2.00000
      2       6.9939      2.00000
      3       9.4356     -0.00536
      4      13.3977      0.00000
      5      20.6751      0.00000

 k-point 194 :      -0.2632    0.3684    0.1053
  band No.  band energies     occupation 
      1       4.5099      2.00000
      2       8.0023      2.01778
      3       9.6273      0.00000
      4      13.9728      0.00000
      5      21.2786      0.00000

 k-point 195 :      -0.4737    0.4211    0.1053
  band No.  band energies     occupation 
      1       3.9021      2.00000
      2       9.6671     -0.11034
      3      11.0496      0.00000
      4      12.7329      0.00000
      5      18.3458      0.00000

 k-point 196 :      -0.4211    0.4211    0.1053
  band No.  band energies     occupation 
      1       4.9226      2.00000
      2       8.8813      0.46916
      3       9.9026      0.00000
      4      12.3886      0.00000
      5      19.0864      0.00000

 k-point 197 :      -0.3684    0.4211    0.1053
  band No.  band energies     occupation 
      1       6.0063      2.00000
      2       8.1211      2.07090
      3       8.7236     -0.01655
      4      12.5205      0.00000
      5      19.5907      0.00000

 k-point 198 :      -0.3158    0.4211    0.1053
  band No.  band energies     occupation 
      1       6.8623      2.00000
      2       6.9616      2.00000
      3       8.4914      0.29537
      4      12.8749      0.00000
      5      20.0927      0.00000

 k-point 199 :      -0.4211    0.4737    0.1053
  band No.  band energies     occupation 
      1       5.4328      2.00000
      2       7.7937      2.05244
      3      10.8584      0.00000
      4      12.5299      0.00000
      5      18.1582      0.00000

 k-point 200 :      -0.3684    0.4737    0.1053
  band No.  band energies     occupation 
      1       6.1039      2.00000
      2       7.5499      2.04400
      3       9.7875     -0.00923
      4      12.2858      0.00000
      5      18.9936      0.00000

 k-point 201 :       0.4737    0.3158    0.1579
  band No.  band energies     occupation 
      1       1.6403      2.00000
      2      10.6696      0.00000
      3      12.2670      0.00000
      4      14.8429      0.00000
      5      21.5436      0.00000

 k-point 202 :      -0.4737    0.3158    0.1579
  band No.  band energies     occupation 
      1       2.6133      2.00000
      2       9.3760     -0.06295
      3      11.7948      0.00000
      4      13.9940      0.00000
      5      22.1469      0.00000

 k-point 203 :      -0.4211    0.3158    0.1579
  band No.  band energies     occupation 
      1       3.7243      2.00000
      2       7.8493      2.01883
      3      11.7986      0.00000
      4      13.3053      0.00000
      5      22.4963      0.00000

 k-point 204 :      -0.3684    0.3158    0.1579
  band No.  band energies     occupation 
      1       4.9551      2.00000
      2       6.3850      2.00000
      3      11.9413      0.00000
      4      12.8440      0.00000
      5      22.8216      0.00000

 k-point 205 :      -0.4737    0.3684    0.1579
  band No.  band energies     occupation 
      1       2.9331      2.00000
      2      10.0969      0.00000
      3      11.5251      0.00000
      4      12.6692      0.00000
      5      21.0023      0.00000

 k-point 206 :      -0.4211    0.3684    0.1579
  band No.  band energies     occupation 
      1       3.9891      2.00000
      2       8.8912      0.39458
      3      11.0583      0.00000
      4      12.0042      0.00000
      5      21.7057      0.00000

 k-point 207 :      -0.3684    0.3684    0.1579
  band No.  band energies     occupation 
      1       5.1690      2.00000
      2       7.4609      2.14757
      3      10.7853      0.00000
      4      11.7920      0.00000
      5      22.1628      0.00000

 k-point 208 :      -0.3158    0.3684    0.1579
  band No.  band energies     occupation 
      1       5.9909      2.00000
      2       6.5519      2.00000
      3      10.4527      0.00000
      4      12.0276      0.00000
      5      22.6277      0.00000

 k-point 209 :      -0.2632    0.3684    0.1579
  band No.  band energies     occupation 
      1       4.7716      2.00000
      2       7.8459      2.06951
      3      10.2604      0.00000
      4      12.5140      0.00000
      5      23.1645      0.00000

 k-point 210 :      -0.2105    0.3684    0.1579
  band No.  band energies     occupation 
      1       3.6264      2.00000
      2       8.9536      0.42248
      3      10.5561      0.00000
      4      13.1767      0.00000
      5      23.4563      0.00000

 k-point 211 :      -0.4211    0.4211    0.1579
  band No.  band energies     occupation 
      1       4.3930      2.00000
      2       9.7151     -0.12723
      3      10.0477      0.00000
      4      11.5964      0.00000
      5      20.6341      0.00000

 k-point 212 :      -0.3684    0.4211    0.1579
  band No.  band energies     occupation 
      1       5.5031      2.00000
      2       8.5709      1.38805
      3       9.4897      0.00000
      4      11.2712      0.00000
      5      21.4362      0.00000

 k-point 213 :      -0.3158    0.4211    0.1579
  band No.  band energies     occupation 
      1       6.6537      2.00000
      2       7.2556      2.00000
      3       9.1044     -0.01340
      4      11.4536      0.00000
      5      21.9904      0.00000

 k-point 214 :      -0.2632    0.4211    0.1579
  band No.  band energies     occupation 
      1       5.9415      2.00000
      2       7.6212      2.00000
      3       9.1978     -0.00094
      4      11.8910      0.00000
      5      22.5448      0.00000

 k-point 215 :      -0.3684    0.4737    0.1579
  band No.  band energies     occupation 
      1       5.9124      2.00000
      2       8.2532      1.83571
      3       9.5243      0.00000
      4      11.3220      0.00000
      5      20.4487      0.00000

 k-point 216 :      -0.3158    0.4737    0.1579
  band No.  band energies     occupation 
      1       6.6727      2.00000
      2       8.0174      2.00001
      3       8.6419      0.01269
      4      11.1331      0.00000
      5      21.3468      0.00000

 k-point 217 :      -0.3684    0.4211    0.2105
  band No.  band energies     occupation 
      1       5.0751      2.00000
      2       8.5724      1.34665
      3       9.9799      0.00000
      4      11.2126      0.00000
      5      23.1012      0.00000

 k-point 218 :      -0.3158    0.4211    0.2105
  band No.  band energies     occupation 
      1       6.2656      2.00000
      2       7.5570      2.00191
      3       9.7068      0.00000
      4      10.7571      0.00000
      5      23.9099      0.00000

 k-point 219 :      -0.3158    0.4737    0.2105
  band No.  band energies     occupation 
      1       6.5792      2.00000
      2       8.3815      2.07310
      3       8.7930      0.00000
      4      10.3452      0.00000
      5      22.9178      0.00000

 k-point 220 :      -0.2632    0.4737    0.2105
  band No.  band energies     occupation 
      1       7.4204      2.00000
      2       7.4313      2.00000
      3       8.8059      0.00000
      4      10.2575      0.00000
      5      23.8475      0.00000


--------------------------------------------------------------------------------------------------------


 soft charge-density along one line, spin component           1
         0         1         2         3         4         5         6         7         8         9
 total charge-density along one line
 
 pseudopotential strength for first ion, spin component:           1
  8.429  -0.007   0.000   0.000   0.000   0.000   0.000   0.000
 -0.007   0.000   0.000   0.000   0.000   0.000   0.000   0.000
  0.000   0.000   1.991   0.000   0.000  -0.028   0.000   0.000
  0.000   0.000   0.000   1.991   0.000   0.000  -0.028   0.000
  0.000   0.000   0.000   0.000   1.991   0.000   0.000  -0.028
  0.000   0.000  -0.028   0.000   0.000  -0.011   0.000   0.000
  0.000   0.000   0.000  -0.028   0.000   0.000  -0.011   0.000
  0.000   0.000   0.000   0.000  -0.028   0.000   0.000  -0.011
 total augmentation occupancy for first ion, spin component:           1
  2.000   0.000   0.000   0.000   0.000   0.000   0.000   0.000
  0.000   0.000   0.000   0.000   0.000   0.000   0.000   0.000
  0.000   0.000   0.333   0.000   0.000   0.000   0.000   0.000
  0.000   0.000   0.000   0.333   0.000   0.000   0.000   0.000
  0.000   0.000   0.000   0.000   0.333   0.000   0.000   0.000
  0.000   0.000   0.000   0.000   0.000   0.000   0.000   0.000
  0.000   0.000   0.000   0.000   0.000   0.000   0.000   0.000
  0.000   0.000   0.000   0.000   0.000   0.000   0.000   0.000


------------------------ aborting loop because EDIFF is reached ----------------------------------------


 


 total charge     
 
# of ion     s       p       d       tot
----------------------------------------
  1        0.428   0.369   0.000   0.798
 
    CHARGE:  cpu time    1.73: real time    0.06
    FORLOC:  cpu time    0.02: real time    0.00
    FORNL :  cpu time    1.00: real time    0.03
    STRESS:  cpu time    6.53: real time    0.23
    FORCOR:  cpu time    0.68: real time    0.02
    FORHAR:  cpu time    0.18: real time    0.01

  FORCE on cell =-STRESS in cart. coord.  units (eV):
  Direction    XX          YY          ZZ          XY          YZ          ZX
  --------------------------------------------------------------------------------------
  Alpha Z    -0.21391    -0.21391    -0.21391
  Ewald     -24.91360   -24.91360   -24.91360     0.00000     0.00000     0.00000
  Hartree     0.03825     0.03825     0.03825     0.00000     0.00000     0.00000
  E(xc)      -8.70799    -8.70799    -8.70799     0.00001     0.00001     0.00001
  Local       0.54873     0.54873     0.54873     0.00000     0.00000     0.00000
  n-local    19.14896    18.77815    19.31727     0.43648    -0.63673     0.59121
  augment    -0.94012    -0.94012    -0.94012     0.00000     0.00000     0.00000
  Kinetic    12.83762    11.34516    22.27098    -9.93533     8.63713    -6.40942
  Fock        0.00000     0.00000     0.00000     0.00000     0.00000     0.00000
  -------------------------------------------------------------------------------------
  Total       0.37741     0.37741     0.37741     0.00000     0.00000     0.00000
  in kB      38.51002    38.51002    38.51002     0.00000     0.00000     0.00000
  external pressure =       38.51 kB  Pullay stress =        0.00 kB


 VOLUME and BASIS-vectors are now :
 -----------------------------------------------------------------------------
  energy-cutoff  :      250.00
  volume of cell :       15.70
      direct lattice vectors                 reciprocal lattice vectors
     0.000000000  1.987500000  1.987500000    -0.251572327  0.251572327  0.251572327
     1.987500000  0.000000000  1.987500000     0.251572327 -0.251572327  0.251572327
     1.987500000  1.987500000  0.000000000     0.251572327  0.251572327 -0.251572327

  length of vectors
     2.810749455  2.810749455  2.810749455     0.435736052  0.435736052  0.435736052


 FORCES acting on ions
    electron-ion (+dipol)            ewald-force                    non-local-force                 convergence-correction
 -----------------------------------------------------------------------------------------------
   0.819E-15 -.141E-14 -.628E-15   0.125E-15 0.427E-16 -.332E-15   0.165E-23 0.000E+00 -.165E-23   -.676E-17 0.330E-17 -.562E-17
 -----------------------------------------------------------------------------------------------
   0.819E-15 -.141E-14 -.628E-15   0.125E-15 0.427E-16 -.332E-15   0.165E-23 0.000E+00 -.165E-23   -.676E-17 0.330E-17 -.562E-17
 
 
 POSITION                                       TOTAL-FORCE (eV/Angst)
 -----------------------------------------------------------------------------------
      0.00000      0.00000      0.00000         0.000000      0.000000      0.000000
 -----------------------------------------------------------------------------------
    total drift:                                0.000000      0.000000      0.000000


--------------------------------------------------------------------------------------------------------



  FREE ENERGIE OF THE ION-ELECTRON SYSTEM (eV)
  ---------------------------------------------------
  free  energy   TOTEN  =        -3.72271328 eV

  energy  without entropy=       -3.72271328  energy(sigma->0) =       -3.72271328
 


--------------------------------------------------------------------------------------------------------


    POTLOK:  cpu time    0.81: real time    0.03


--------------------------------------------------------------------------------------------------------


 stress matrix after NEB project (eV)
      0.37741      0.00000      0.00000
      0.00000      0.37741      0.00000
      0.00000      0.00000      0.37741
  FORCES: max atom, RMS     0.000000    0.000000
  FORCE total and by dimension    0.000000    0.000000
  Stress total and by dimension    0.653695    0.377411
 writing wavefunctions
     LOOP+:  cpu time  389.50: real time   13.40
    4ORBIT:  cpu time    0.00: real time    0.00
 


 total charge     
 
# of ion     s       p       d       tot
----------------------------------------
  1        0.428   0.369   0.000   0.798
 
 BZINTS: Fermi energy:  8.569325;  3.000000 electrons
         Band energy:  11.911978;  BLOECHL correction: -0.040984

 total amount of memory used by VASP on root node    36913. kBytes
========================================================================

   base      :      30000. kBytes
   nonl-proj :       2114. kBytes
   fftplans  :        800. kBytes
   grid      :       1216. kBytes
   one-center:          3. kBytes
   wavefun   :       2780. kBytes
 
  
  
 General timing and accounting informations for this job:
 ========================================================
  
                  Total CPU time used (sec):      413.976
                            User time (sec):      345.237
                          System time (sec):       68.740
                         Elapsed time (sec):       14.499
  
                   Maximum memory used (kb):       39604.
                   Average memory used (kb):           0.
  
                          Minor page faults:         6861
                          Major page faults:            0
                 Voluntary context switches:          639
