PROCAR new format
# of k-points:  220         # of bands:   5         # of ions:   1

 k-point    1 :    0.00000000 0.00000000 0.00000000     weight = 0.00014579

band   1 # energy   -2.95079919 # occ.  2.00000000
 
ion      s      p      d    tot
  1  0.282  0.000  0.000  0.282
 
band   2 # energy   21.50226813 # occ.  0.00000000
 
ion      s      p      d    tot
  1  0.000  0.000  0.000  0.000
 
band   3 # energy   21.50226836 # occ.  0.00000000
 
ion      s      p      d    tot
  1  0.000  0.000  0.000  0.000
 
band   4 # energy   21.50227249 # occ.  0.00000000
 
ion      s      p      d    tot
  1  0.000  0.000  0.000  0.000
 
band   5 # energy   23.30785987 # occ.  0.00000000
 
ion      s      p      d    tot
  1  0.000  0.523  0.000  0.523
 

 k-point    2 :    0.05263158 0.00000000 0.00000000     weight = 0.00116635

band   1 # energy   -2.87299151 # occ.  2.00000000
 
ion      s      p      d    tot
  1  0.280  0.002  0.000  0.282
 
band   2 # energy   20.08967765 # occ.  0.00000000
 
ion      s      p      d    tot
  1  0.003  0.119  0.000  0.122
 
band   3 # energy   21.24350046 # occ.  0.00000000
 
ion      s      p      d    tot
  1  0.000  0.076  0.000  0.076
 
band   4 # energy   21.24350497 # occ.  0.00000000
 
ion      s      p      d    tot
  1  0.000  0.076  0.000  0.076
 
band   5 # energy   23.69149516 # occ.  0.00000000
 
ion      s      p      d    tot
  1  0.000  0.449  0.000  0.449
 

 k-point    3 :    0.10526316 0.00000000 0.00000000     weight = 0.00116635

band   1 # energy   -2.63988454 # occ.  2.00000000
 
ion      s      p      d    tot
  1  0.275  0.007  0.000  0.281
 
band   2 # energy   17.93233139 # occ.  0.00000000
 
ion      s      p      d    tot
  1  0.012  0.157  0.000  0.170
 
band   3 # energy   20.77219602 # occ.  0.00000000
 
ion      s      p      d    tot
  1  0.000  0.154  0.000  0.154
 
band   4 # energy   20.77220213 # occ.  0.00000000
 
ion      s      p      d    tot
  1  0.000  0.154  0.000  0.154
 
band   5 # energy   23.83980002 # occ.  0.00000000
 
ion      s      p      d    tot
  1  0.042  0.234  0.000  0.276
 

 k-point    4 :    0.15789474 0.00000000 0.00000000     weight = 0.00116635

band   1 # energy   -2.25191463 # occ.  2.00000000
 
ion      s      p      d    tot
  1  0.266  0.015  0.000  0.282
 
band   2 # energy   15.74451307 # occ.  0.00000000
 
ion      s      p      d    tot
  1  0.028  0.168  0.000  0.197
 
band   3 # energy   20.33194829 # occ.  0.00000000
 
ion      s      p      d    tot
  1  0.000  0.196  0.000  0.196
 
band   4 # energy   20.33195513 # occ.  0.00000000
 
ion      s      p      d    tot
  1  0.000  0.196  0.000  0.196
 
band   5 # energy   23.66839233 # occ.  0.00000000
 
ion      s      p      d    tot
  1  0.069  0.155  0.000  0.224
 

 k-point    5 :    0.21052632 0.00000000 0.00000000     weight = 0.00116635

band   1 # energy   -1.71074466 # occ.  2.00000000
 
ion      s      p      d    tot
  1  0.255  0.027  0.000  0.282
 
band   2 # energy   13.61730823 # occ.  0.00000000
 
ion      s      p      d    tot
  1  0.046  0.172  0.000  0.218
 
band   3 # energy   19.99817222 # occ.  0.00000000
 
ion      s      p      d    tot
  1  0.000  0.221  0.000  0.221
 
band   4 # energy   19.99817937 # occ.  0.00000000
 
ion      s      p      d    tot
  1  0.000  0.221  0.000  0.221
 
band   5 # energy   23.48267579 # occ.  0.00000000
 
ion      s      p      d    tot
  1  0.094  0.093  0.000  0.187
 

 k-point    6 :    0.26315789 0.00000000 0.00000000     weight = 0.00116635

band   1 # energy   -1.01795324 # occ.  2.00000000
 
ion      s      p      d    tot
  1  0.241  0.041  0.000  0.282
 
band   2 # energy   11.58577961 # occ.  0.00000000
 
ion      s      p      d    tot
  1  0.066  0.169  0.000  0.235
 
band   3 # energy   19.78602078 # occ.  0.00000000
 
ion      s      p      d    tot
  1  0.000  0.233  0.000  0.233
 
band   4 # energy   19.78602779 # occ.  0.00000000
 
ion      s      p      d    tot
  1  0.000  0.233  0.000  0.233
 
band   5 # energy   23.35529385 # occ.  0.00000000
 
ion      s      p      d    tot
  1  0.111  0.048  0.000  0.159
 

 k-point    7 :    0.31578947 0.00000000 0.00000000     weight = 0.00116635

band   1 # energy   -0.17625382 # occ.  2.00000000
 
ion      s      p      d    tot
  1  0.224  0.057  0.000  0.281
 
band   2 # energy    9.66511953 # occ. -0.12900129
 
ion      s      p      d    tot
  1  0.088  0.161  0.000  0.249
 
band   3 # energy   19.69093710 # occ.  0.00000000
 
ion      s      p      d    tot
  1  0.000  0.238  0.000  0.238
 
band   4 # energy   19.69094375 # occ.  0.00000000
 
ion      s      p      d    tot
  1  0.000  0.238  0.000  0.238
 
band   5 # energy   22.65307746 # occ.  0.00000000
 
ion      s      p      d    tot
  1  0.000  0.222  0.000  0.222
 

 k-point    8 :    0.36842105 0.00000000 0.00000000     weight = 0.00116635

band   1 # energy    0.81174038 # occ.  2.00000000
 
ion      s      p      d    tot
  1  0.204  0.075  0.000  0.279
 
band   2 # energy    7.86449882 # occ.  1.94059497
 
ion      s      p      d    tot
  1  0.112  0.149  0.000  0.261
 
band   3 # energy   19.72256214 # occ.  0.00000000
 
ion      s      p      d    tot
  1  0.000  0.234  0.000  0.234
 
band   4 # energy   19.72256787 # occ.  0.00000000
 
ion      s      p      d    tot
  1  0.000  0.234  0.000  0.234
 
band   5 # energy   21.84632320 # occ.  0.00000000
 
ion      s      p      d    tot
  1  0.000  0.242  0.000  0.242
 

 k-point    9 :    0.42105263 0.00000000 0.00000000     weight = 0.00116635

band   1 # energy    1.94206153 # occ.  2.00000000
 
ion      s      p      d    tot
  1  0.178  0.096  0.000  0.275
 
band   2 # energy    6.19064349 # occ.  2.00000000
 
ion      s      p      d    tot
  1  0.140  0.131  0.000  0.271
 
band   3 # energy   19.88131332 # occ.  0.00000000
 
ion      s      p      d    tot
  1  0.000  0.216  0.000  0.216
 
band   4 # energy   19.88131729 # occ.  0.00000000
 
ion      s      p      d    tot
  1  0.000  0.216  0.000  0.216
 
band   5 # energy   21.16715120 # occ.  0.00000000
 
ion      s      p      d    tot
  1  0.000  0.272  0.000  0.272
 

 k-point   10 :    0.47368421 0.00000000 0.00000000     weight = 0.00116635

band   1 # energy    3.20405821 # occ.  2.00000000
 
ion      s      p      d    tot
  1  0.133  0.134  0.000  0.267
 
band   2 # energy    4.65994070 # occ.  2.00000000
 
ion      s      p      d    tot
  1  0.190  0.095  0.000  0.285
 
band   3 # energy   20.15849237 # occ.  0.00000000
 
ion      s      p      d    tot
  1  0.000  0.140  0.000  0.140
 
band   4 # energy   20.15849360 # occ.  0.00000000
 
ion      s      p      d    tot
  1  0.000  0.140  0.000  0.140
 
band   5 # energy   20.63186949 # occ.  0.00000000
 
ion      s      p      d    tot
  1  0.000  0.352  0.000  0.352
 

 k-point   11 :    0.05263158 0.05263158 0.00000000     weight = 0.00087476

band   1 # energy   -2.84709618 # occ.  2.00000000
 
ion      s      p      d    tot
  1  0.280  0.002  0.000  0.282
 
band   2 # energy   20.58350908 # occ.  0.00000000
 
ion      s      p      d    tot
  1  0.000  0.153  0.000  0.153
 
band   3 # energy   20.58351403 # occ.  0.00000000
 
ion      s      p      d    tot
  1  0.000  0.153  0.000  0.153
 
band   4 # energy   20.76584929 # occ.  0.00000000
 
ion      s      p      d    tot
  1  0.000  0.000  0.000  0.000
 
band   5 # energy   23.05598903 # occ.  0.00000000
 
ion      s      p      d    tot
  1  0.024  0.489  0.000  0.513
 

 k-point   12 :    0.10526316 0.05263158 0.00000000     weight = 0.00349905

band   1 # energy   -2.66576845 # occ.  2.00000000
 
ion      s      p      d    tot
  1  0.275  0.006  0.000  0.282
 
band   2 # energy   18.66694336 # occ.  0.00000000
 
ion      s      p      d    tot
  1  0.006  0.146  0.000  0.152
 
band   3 # energy   19.96239651 # occ.  0.00000000
 
ion      s      p      d    tot
  1  0.000  0.195  0.000  0.195
 
band   4 # energy   20.85709815 # occ.  0.00000000
 
ion      s      p      d    tot
  1  0.007  0.069  0.000  0.076
 
band   5 # energy   23.19124440 # occ.  0.00000000
 
ion      s      p      d    tot
  1  0.028  0.450  0.000  0.478
 

 k-point   13 :    0.15789474 0.05263158 0.00000000     weight = 0.00349905

band   1 # energy   -2.32947798 # occ.  2.00000000
 
ion      s      p      d    tot
  1  0.268  0.014  0.000  0.282
 
band   2 # energy   16.50343558 # occ.  0.00000000
 
ion      s      p      d    tot
  1  0.020  0.166  0.000  0.185
 
band   3 # energy   19.44886128 # occ.  0.00000000
 
ion      s      p      d    tot
  1  0.000  0.224  0.000  0.224
 
band   4 # energy   20.64645976 # occ.  0.00000000
 
ion      s      p      d    tot
  1  0.020  0.114  0.000  0.135
 
band   5 # energy   23.86832765 # occ.  0.00000000
 
ion      s      p      d    tot
  1  0.013  0.470  0.000  0.483
 

 k-point   14 :    0.21052632 0.05263158 0.00000000     weight = 0.00349905

band   1 # energy   -1.83938186 # occ.  2.00000000
 
ion      s      p      d    tot
  1  0.258  0.024  0.000  0.282
 
band   2 # energy   14.36643224 # occ.  0.00000000
 
ion      s      p      d    tot
  1  0.037  0.171  0.000  0.208
 
band   3 # energy   19.05473484 # occ.  0.00000000
 
ion      s      p      d    tot
  1  0.000  0.243  0.000  0.243
 
band   4 # energy   20.35923530 # occ.  0.00000000
 
ion      s      p      d    tot
  1  0.029  0.140  0.000  0.169
 
band   5 # energy   23.43937393 # occ.  0.00000000
 
ion      s      p      d    tot
  1  0.004  0.262  0.000  0.266
 

 k-point   15 :    0.26315789 0.05263158 0.00000000     weight = 0.00349905

band   1 # energy   -1.19722030 # occ.  2.00000000
 
ion      s      p      d    tot
  1  0.245  0.037  0.000  0.282
 
band   2 # energy   12.30703175 # occ.  0.00000000
 
ion      s      p      d    tot
  1  0.057  0.171  0.000  0.228
 
band   3 # energy   18.78692199 # occ.  0.00000000
 
ion      s      p      d    tot
  1  0.000  0.254  0.000  0.254
 
band   4 # energy   20.13279810 # occ.  0.00000000
 
ion      s      p      d    tot
  1  0.034  0.147  0.000  0.180
 
band   5 # energy   22.37494624 # occ.  0.00000000
 
ion      s      p      d    tot
  1  0.008  0.232  0.000  0.240
 

 k-point   16 :    0.31578947 0.05263158 0.00000000     weight = 0.00349905

band   1 # energy   -0.40534662 # occ.  2.00000000
 
ion      s      p      d    tot
  1  0.229  0.052  0.000  0.281
 
band   2 # energy   10.35204743 # occ. -0.00114001
 
ion      s      p      d    tot
  1  0.078  0.165  0.000  0.244
 
band   3 # energy   18.64344382 # occ.  0.00000000
 
ion      s      p      d    tot
  1  0.000  0.261  0.000  0.261
 
band   4 # energy   20.00522260 # occ.  0.00000000
 
ion      s      p      d    tot
  1  0.034  0.136  0.000  0.171
 
band   5 # energy   21.39700146 # occ.  0.00000000
 
ion      s      p      d    tot
  1  0.014  0.252  0.000  0.265
 

 k-point   17 :    0.36842105 0.05263158 0.00000000     weight = 0.00349905

band   1 # energy    0.53377333 # occ.  2.00000000
 
ion      s      p      d    tot
  1  0.209  0.070  0.000  0.279
 
band   2 # energy    8.51296620 # occ.  1.04842481
 
ion      s      p      d    tot
  1  0.102  0.154  0.000  0.257
 
band   3 # energy   18.62995714 # occ.  0.00000000
 
ion      s      p      d    tot
  1  0.000  0.263  0.000  0.263
 
band   4 # energy   19.97385829 # occ.  0.00000000
 
ion      s      p      d    tot
  1  0.025  0.073  0.000  0.098
 
band   5 # energy   20.56360249 # occ.  0.00000000
 
ion      s      p      d    tot
  1  0.027  0.325  0.000  0.352
 

 k-point   18 :    0.42105263 0.05263158 0.00000000     weight = 0.00349905

band   1 # energy    1.61659767 # occ.  2.00000000
 
ion      s      p      d    tot
  1  0.186  0.090  0.000  0.276
 
band   2 # energy    6.79775670 # occ.  2.00000000
 
ion      s      p      d    tot
  1  0.128  0.139  0.000  0.267
 
band   3 # energy   18.74663909 # occ.  0.00000000
 
ion      s      p      d    tot
  1  0.000  0.260  0.000  0.260
 
band   4 # energy   19.70380821 # occ.  0.00000000
 
ion      s      p      d    tot
  1  0.002  0.082  0.000  0.084
 
band   5 # energy   20.22473757 # occ.  0.00000000
 
ion      s      p      d    tot
  1  0.052  0.326  0.000  0.378
 

 k-point   19 :    0.47368421 0.05263158 0.00000000     weight = 0.00349905

band   1 # energy    2.83675866 # occ.  2.00000000
 
ion      s      p      d    tot
  1  0.153  0.117  0.000  0.270
 
band   2 # energy    5.21612418 # occ.  2.00000000
 
ion      s      p      d    tot
  1  0.164  0.114  0.000  0.278
 
band   3 # energy   18.99493837 # occ.  0.00000000
 
ion      s      p      d    tot
  1  0.000  0.252  0.000  0.252
 
band   4 # energy   19.13914419 # occ.  0.00000000
 
ion      s      p      d    tot
  1  0.011  0.171  0.000  0.183
 
band   5 # energy   20.44468938 # occ.  0.00000000
 
ion      s      p      d    tot
  1  0.043  0.245  0.000  0.288
 

 k-point   20 :   -0.47368421 0.05263158 0.00000000     weight = 0.00349905

band   1 # energy    3.68722767 # occ.  2.00000000
 
ion      s      p      d    tot
  1  0.066  0.181  0.000  0.248
 
band   2 # energy    4.27718743 # occ.  2.00000000
 
ion      s      p      d    tot
  1  0.253  0.050  0.000  0.304
 
band   3 # energy   18.67420719 # occ.  0.00000000
 
ion      s      p      d    tot
  1  0.016  0.198  0.000  0.213
 
band   4 # energy   19.37540333 # occ.  0.00000000
 
ion      s      p      d    tot
  1  0.000  0.241  0.000  0.241
 
band   5 # energy   20.82891509 # occ.  0.00000000
 
ion      s      p      d    tot
  1  0.037  0.224  0.000  0.260
 

 k-point   21 :   -0.42105263 0.05263158 0.00000000     weight = 0.00349905

band   1 # energy    2.41599759 # occ.  2.00000000
 
ion      s      p      d    tot
  1  0.167  0.106  0.000  0.273
 
band   2 # energy    5.72725723 # occ.  2.00000000
 
ion      s      p      d    tot
  1  0.150  0.124  0.000  0.274
 
band   3 # energy   18.33632431 # occ.  0.00000000
 
ion      s      p      d    tot
  1  0.019  0.211  0.000  0.230
 
band   4 # energy   19.88607892 # occ.  0.00000000
 
ion      s      p      d    tot
  1  0.000  0.225  0.000  0.225
 
band   5 # energy   21.17187725 # occ.  0.00000000
 
ion      s      p      d    tot
  1  0.000  0.261  0.000  0.261
 

 k-point   22 :   -0.36842105 0.05263158 0.00000000     weight = 0.00349905

band   1 # energy    1.23997259 # occ.  2.00000000
 
ion      s      p      d    tot
  1  0.195  0.083  0.000  0.277
 
band   2 # energy    7.35490981 # occ.  2.12621574
 
ion      s      p      d    tot
  1  0.119  0.145  0.000  0.264
 
band   3 # energy   18.13153685 # occ.  0.00000000
 
ion      s      p      d    tot
  1  0.021  0.219  0.000  0.240
 
band   4 # energy   20.52619368 # occ.  0.00000000
 
ion      s      p      d    tot
  1  0.000  0.182  0.000  0.182
 
band   5 # energy   20.96343567 # occ.  0.00000000
 
ion      s      p      d    tot
  1  0.000  0.292  0.000  0.292
 

 k-point   23 :   -0.31578947 0.05263158 0.00000000     weight = 0.00349905

band   1 # energy    0.20457959 # occ.  2.00000000
 
ion      s      p      d    tot
  1  0.216  0.064  0.000  0.280
 
band   2 # energy    9.11173135 # occ.  0.19560767
 
ion      s      p      d    tot
  1  0.094  0.159  0.000  0.253
 
band   3 # energy   18.05984806 # occ.  0.00000000
 
ion      s      p      d    tot
  1  0.022  0.223  0.000  0.245
 
band   4 # energy   20.87374631 # occ.  0.00000000
 
ion      s      p      d    tot
  1  0.000  0.196  0.000  0.196
 
band   5 # energy   21.30879202 # occ.  0.00000000
 
ion      s      p      d    tot
  1  0.000  0.261  0.000  0.261
 

 k-point   24 :   -0.26315789 0.05263158 0.00000000     weight = 0.00349905

band   1 # energy   -0.68579748 # occ.  2.00000000
 
ion      s      p      d    tot
  1  0.234  0.047  0.000  0.281
 
band   2 # energy   10.98961817 # occ.  0.00000000
 
ion      s      p      d    tot
  1  0.071  0.168  0.000  0.238
 
band   3 # energy   18.12254030 # occ.  0.00000000
 
ion      s      p      d    tot
  1  0.022  0.222  0.000  0.244
 
band   4 # energy   20.91552368 # occ.  0.00000000
 
ion      s      p      d    tot
  1  0.000  0.215  0.000  0.215
 
band   5 # energy   22.20538085 # occ.  0.00000000
 
ion      s      p      d    tot
  1  0.000  0.221  0.000  0.221
 

 k-point   25 :   -0.21052632 0.05263158 0.00000000     weight = 0.00349905

band   1 # energy   -1.42805497 # occ.  2.00000000
 
ion      s      p      d    tot
  1  0.250  0.032  0.000  0.282
 
band   2 # energy   12.97872480 # occ.  0.00000000
 
ion      s      p      d    tot
  1  0.049  0.172  0.000  0.221
 
band   3 # energy   18.31416662 # occ.  0.00000000
 
ion      s      p      d    tot
  1  0.022  0.219  0.000  0.241
 
band   4 # energy   21.07294015 # occ.  0.00000000
 
ion      s      p      d    tot
  1  0.000  0.199  0.000  0.199
 
band   5 # energy   23.21124908 # occ.  0.00000000
 
ion      s      p      d    tot
  1  0.000  0.218  0.000  0.218
 

 k-point   26 :   -0.15789474 0.05263158 0.00000000     weight = 0.00349905

band   1 # energy   -2.01969859 # occ.  2.00000000
 
ion      s      p      d    tot
  1  0.262  0.020  0.000  0.282
 
band   2 # energy   15.06259096 # occ.  0.00000000
 
ion      s      p      d    tot
  1  0.030  0.169  0.000  0.199
 
band   3 # energy   18.63700330 # occ.  0.00000000
 
ion      s      p      d    tot
  1  0.020  0.216  0.000  0.235
 
band   4 # energy   21.33671700 # occ.  0.00000000
 
ion      s      p      d    tot
  1  0.000  0.161  0.000  0.161
 
band   5 # energy   24.13537477 # occ.  0.00000000
 
ion      s      p      d    tot
  1  0.049  0.193  0.000  0.242
 

 k-point   27 :   -0.10526316 0.05263158 0.00000000     weight = 0.00349905

band   1 # energy   -2.45875711 # occ.  2.00000000
 
ion      s      p      d    tot
  1  0.271  0.011  0.000  0.281
 
band   2 # energy   17.19211216 # occ.  0.00000000
 
ion      s      p      d    tot
  1  0.012  0.158  0.000  0.170
 
band   3 # energy   19.10200346 # occ.  0.00000000
 
ion      s      p      d    tot
  1  0.018  0.207  0.000  0.225
 
band   4 # energy   21.63148371 # occ.  0.00000000
 
ion      s      p      d    tot
  1  0.000  0.082  0.000  0.082
 
band   5 # energy   23.94711379 # occ.  0.00000000
 
ion      s      p      d    tot
  1  0.000  0.480  0.000  0.480
 

 k-point   28 :   -0.05263158 0.05263158 0.00000000     weight = 0.00174953

band   1 # energy   -2.74349947 # occ.  2.00000000
 
ion      s      p      d    tot
  1  0.277  0.005  0.000  0.281
 
band   2 # energy   19.14055603 # occ.  0.00000000
 
ion      s      p      d    tot
  1  0.000  0.122  0.000  0.122
 
band   3 # energy   19.84829048 # occ.  0.00000000
 
ion      s      p      d    tot
  1  0.013  0.197  0.000  0.210
 
band   4 # energy   21.70176621 # occ.  0.00000000
 
ion      s      p      d    tot
  1  0.000  0.000  0.000  0.000
 
band   5 # energy   23.44498452 # occ.  0.00000000
 
ion      s      p      d    tot
  1  0.000  0.534  0.000  0.534
 

 k-point   29 :    0.10526316 0.10526316 0.00000000     weight = 0.00087476

band   1 # energy   -2.53631922 # occ.  2.00000000
 
ion      s      p      d    tot
  1  0.273  0.009  0.000  0.282
 
band   2 # energy   19.26543415 # occ.  0.00000000
 
ion      s      p      d    tot
  1  0.000  0.225  0.000  0.225
 
band   3 # energy   19.26544043 # occ.  0.00000000
 
ion      s      p      d    tot
  1  0.000  0.225  0.000  0.225
 
band   4 # energy   19.41644161 # occ.  0.00000000
 
ion      s      p      d    tot
  1  0.000  0.000  0.000  0.000
 
band   5 # energy   22.41272128 # occ.  0.00000000
 
ion      s      p      d    tot
  1  0.077  0.400  0.000  0.477
 

 k-point   30 :    0.15789474 0.10526316 0.00000000     weight = 0.00349905

band   1 # energy   -2.25199072 # occ.  2.00000000
 
ion      s      p      d    tot
  1  0.266  0.015  0.000  0.282
 
band   2 # energy   17.31532027 # occ.  0.00000000
 
ion      s      p      d    tot
  1  0.008  0.157  0.000  0.165
 
band   3 # energy   18.69014661 # occ.  0.00000000
 
ion      s      p      d    tot
  1  0.000  0.247  0.000  0.247
 
band   4 # energy   19.70018662 # occ.  0.00000000
 
ion      s      p      d    tot
  1  0.013  0.086  0.000  0.099
 
band   5 # energy   22.42871058 # occ.  0.00000000
 
ion      s      p      d    tot
  1  0.082  0.370  0.000  0.452
 

 k-point   31 :    0.21052632 0.10526316 0.00000000     weight = 0.00349905

band   1 # energy   -1.81353343 # occ.  2.00000000
 
ion      s      p      d    tot
  1  0.258  0.025  0.000  0.282
 
band   2 # energy   15.21142258 # occ.  0.00000000
 
ion      s      p      d    tot
  1  0.025  0.169  0.000  0.194
 
band   3 # energy   18.24490613 # occ.  0.00000000
 
ion      s      p      d    tot
  1  0.000  0.261  0.000  0.261
 
band   4 # energy   19.66546412 # occ.  0.00000000
 
ion      s      p      d    tot
  1  0.040  0.083  0.000  0.123
 
band   5 # energy   22.02752296 # occ.  0.00000000
 
ion      s      p      d    tot
  1  0.021  0.218  0.000  0.240
 

 k-point   32 :    0.26315789 0.10526316 0.00000000     weight = 0.00349905

band   1 # energy   -1.22284469 # occ.  2.00000000
 
ion      s      p      d    tot
  1  0.245  0.037  0.000  0.282
 
band   2 # energy   13.14588054 # occ.  0.00000000
 
ion      s      p      d    tot
  1  0.044  0.173  0.000  0.217
 
band   3 # energy   17.92492478 # occ.  0.00000000
 
ion      s      p      d    tot
  1  0.000  0.272  0.000  0.272
 
band   4 # energy   19.48437451 # occ.  0.00000000
 
ion      s      p      d    tot
  1  0.054  0.065  0.000  0.119
 
band   5 # energy   20.87005944 # occ.  0.00000000
 
ion      s      p      d    tot
  1  0.033  0.232  0.000  0.265
 

 k-point   33 :    0.31578947 0.10526316 0.00000000     weight = 0.00349905

band   1 # energy   -0.48182012 # occ.  2.00000000
 
ion      s      p      d    tot
  1  0.230  0.051  0.000  0.281
 
band   2 # energy   11.16761600 # occ.  0.00000000
 
ion      s      p      d    tot
  1  0.065  0.170  0.000  0.235
 
band   3 # energy   17.73444289 # occ.  0.00000000
 
ion      s      p      d    tot
  1  0.000  0.279  0.000  0.279
 
band   4 # energy   19.28052000 # occ.  0.00000000
 
ion      s      p      d    tot
  1  0.033  0.011  0.000  0.044
 
band   5 # energy   19.89282003 # occ.  0.00000000
 
ion      s      p      d    tot
  1  0.072  0.292  0.000  0.364
 

 k-point   34 :    0.36842105 0.10526316 0.00000000     weight = 0.00349905

band   1 # energy    0.40708123 # occ.  2.00000000
 
ion      s      p      d    tot
  1  0.212  0.068  0.000  0.280
 
band   2 # energy    9.29667891 # occ.  0.00636531
 
ion      s      p      d    tot
  1  0.089  0.161  0.000  0.250
 
band   3 # energy   17.67285378 # occ.  0.00000000
 
ion      s      p      d    tot
  1  0.000  0.284  0.000  0.284
 
band   4 # energy   18.74093918 # occ.  0.00000000
 
ion      s      p      d    tot
  1  0.003  0.085  0.000  0.088
 
band   5 # energy   19.47865983 # occ.  0.00000000
 
ion      s      p      d    tot
  1  0.114  0.223  0.000  0.337
 

 k-point   35 :    0.42105263 0.10526316 0.00000000     weight = 0.00349905

band   1 # energy    1.44068357 # occ.  2.00000000
 
ion      s      p      d    tot
  1  0.190  0.087  0.000  0.277
 
band   2 # energy    7.54481229 # occ.  2.13717776
 
ion      s      p      d    tot
  1  0.114  0.148  0.000  0.262
 
band   3 # energy   17.74457900 # occ.  0.00000000
 
ion      s      p      d    tot
  1  0.000  0.283  0.000  0.283
 
band   4 # energy   17.99740100 # occ.  0.00000000
 
ion      s      p      d    tot
  1  0.020  0.149  0.000  0.169
 
band   5 # energy   19.52476099 # occ.  0.00000000
 
ion      s      p      d    tot
  1  0.105  0.165  0.000  0.270
 

 k-point   36 :    0.47368421 0.10526316 0.00000000     weight = 0.00349905

band   1 # energy    2.61452059 # occ.  2.00000000
 
ion      s      p      d    tot
  1  0.162  0.110  0.000  0.272
 
band   2 # energy    5.92147356 # occ.  2.00000000
 
ion      s      p      d    tot
  1  0.145  0.127  0.000  0.273
 
band   3 # energy   17.35179565 # occ.  0.00000000
 
ion      s      p      d    tot
  1  0.031  0.170  0.000  0.201
 
band   4 # energy   17.94908561 # occ.  0.00000000
 
ion      s      p      d    tot
  1  0.000  0.280  0.000  0.280
 
band   5 # energy   19.74358190 # occ.  0.00000000
 
ion      s      p      d    tot
  1  0.097  0.148  0.000  0.246
 

 k-point   37 :   -0.47368421 0.10526316 0.00000000     weight = 0.00349905

band   1 # energy    3.88056620 # occ.  2.00000000
 
ion      s      p      d    tot
  1  0.063  0.183  0.000  0.246
 
band   2 # energy    4.47567578 # occ.  2.00000000
 
ion      s      p      d    tot
  1  0.247  0.056  0.000  0.302
 
band   3 # energy   16.83083943 # occ.  0.00000000
 
ion      s      p      d    tot
  1  0.038  0.181  0.000  0.219
 
band   4 # energy   18.28556417 # occ.  0.00000000
 
ion      s      p      d    tot
  1  0.000  0.274  0.000  0.274
 
band   5 # energy   20.10336839 # occ.  0.00000000
 
ion      s      p      d    tot
  1  0.090  0.145  0.000  0.235
 

 k-point   38 :   -0.42105263 0.10526316 0.00000000     weight = 0.00349905

band   1 # energy    3.03518052 # occ.  2.00000000
 
ion      s      p      d    tot
  1  0.149  0.120  0.000  0.269
 
band   2 # energy    5.40990217 # occ.  2.00000000
 
ion      s      p      d    tot
  1  0.159  0.118  0.000  0.277
 
band   3 # energy   16.44409339 # occ.  0.00000000
 
ion      s      p      d    tot
  1  0.044  0.188  0.000  0.232
 
band   4 # energy   18.75420446 # occ.  0.00000000
 
ion      s      p      d    tot
  1  0.000  0.267  0.000  0.267
 
band   5 # energy   20.60146348 # occ.  0.00000000
 
ion      s      p      d    tot
  1  0.080  0.145  0.000  0.225
 

 k-point   39 :   -0.36842105 0.10526316 0.00000000     weight = 0.00349905

band   1 # energy    1.81690460 # occ.  2.00000000
 
ion      s      p      d    tot
  1  0.182  0.093  0.000  0.275
 
band   2 # energy    6.98621352 # occ.  2.01037827
 
ion      s      p      d    tot
  1  0.123  0.143  0.000  0.266
 
band   3 # energy   16.19355280 # occ.  0.00000000
 
ion      s      p      d    tot
  1  0.048  0.193  0.000  0.242
 
band   4 # energy   19.35536285 # occ.  0.00000000
 
ion      s      p      d    tot
  1  0.000  0.259  0.000  0.259
 
band   5 # energy   21.23231445 # occ.  0.00000000
 
ion      s      p      d    tot
  1  0.069  0.149  0.000  0.218
 

 k-point   40 :   -0.31578947 0.10526316 0.00000000     weight = 0.00349905

band   1 # energy    0.73581776 # occ.  2.00000000
 
ion      s      p      d    tot
  1  0.205  0.074  0.000  0.279
 
band   2 # energy    8.69314466 # occ.  0.78172419
 
ion      s      p      d    tot
  1  0.096  0.158  0.000  0.254
 
band   3 # energy   16.08392112 # occ.  0.00000000
 
ion      s      p      d    tot
  1  0.051  0.197  0.000  0.248
 
band   4 # energy   20.08904946 # occ.  0.00000000
 
ion      s      p      d    tot
  1  0.000  0.253  0.000  0.253
 
band   5 # energy   21.99376115 # occ.  0.00000000
 
ion      s      p      d    tot
  1  0.055  0.155  0.000  0.211
 

 k-point   41 :   -0.26315789 0.10526316 0.00000000     weight = 0.00349905

band   1 # energy   -0.20177490 # occ.  2.00000000
 
ion      s      p      d    tot
  1  0.224  0.056  0.000  0.281
 
band   2 # energy   10.51834664 # occ.  0.00000000
 
ion      s      p      d    tot
  1  0.070  0.169  0.000  0.239
 
band   3 # energy   16.11717349 # occ.  0.00000000
 
ion      s      p      d    tot
  1  0.053  0.200  0.000  0.253
 
band   4 # energy   20.95167246 # occ.  0.00000000
 
ion      s      p      d    tot
  1  0.000  0.256  0.000  0.256
 
band   5 # energy   22.19044067 # occ.  0.00000000
 
ion      s      p      d    tot
  1  0.000  0.169  0.000  0.169
 

 k-point   42 :   -0.21052632 0.10526316 0.00000000     weight = 0.00349905

band   1 # energy   -0.99247605 # occ.  2.00000000
 
ion      s      p      d    tot
  1  0.241  0.041  0.000  0.282
 
band   2 # energy   12.44357196 # occ.  0.00000000
 
ion      s      p      d    tot
  1  0.046  0.174  0.000  0.219
 
band   3 # energy   16.30018416 # occ.  0.00000000
 
ion      s      p      d    tot
  1  0.055  0.204  0.000  0.258
 
band   4 # energy   21.91713968 # occ.  0.00000000
 
ion      s      p      d    tot
  1  0.000  0.318  0.000  0.318
 
band   5 # energy   22.29957557 # occ.  0.00000000
 
ion      s      p      d    tot
  1  0.000  0.071  0.000  0.071
 

 k-point   43 :   -0.15789474 0.10526316 0.00000000     weight = 0.00349905

band   1 # energy   -1.63347075 # occ.  2.00000000
 
ion      s      p      d    tot
  1  0.254  0.028  0.000  0.282
 
band   2 # energy   14.41968915 # occ.  0.00000000
 
ion      s      p      d    tot
  1  0.020  0.170  0.000  0.190
 
band   3 # energy   16.66946840 # occ.  0.00000000
 
ion      s      p      d    tot
  1  0.057  0.210  0.000  0.267
 
band   4 # energy   22.40041981 # occ.  0.00000000
 
ion      s      p      d    tot
  1  0.000  0.127  0.000  0.127
 
band   5 # energy   23.01638964 # occ.  0.00000000
 
ion      s      p      d    tot
  1  0.000  0.242  0.000  0.242
 

 k-point   44 :   -0.10526316 0.10526316 0.00000000     weight = 0.00174953

band   1 # energy   -2.12277786 # occ.  2.00000000
 
ion      s      p      d    tot
  1  0.264  0.018  0.000  0.282
 
band   2 # energy   16.18835810 # occ.  0.00000000
 
ion      s      p      d    tot
  1  0.000  0.152  0.000  0.152
 
band   3 # energy   17.44703942 # occ.  0.00000000
 
ion      s      p      d    tot
  1  0.054  0.224  0.000  0.278
 
band   4 # energy   22.30962196 # occ.  0.00000000
 
ion      s      p      d    tot
  1  0.000  0.000  0.000  0.000
 
band   5 # energy   23.67995052 # occ.  0.00000000
 
ion      s      p      d    tot
  1  0.000  0.594  0.000  0.594
 

 k-point   45 :    0.15789474 0.15789474 0.00000000     weight = 0.00087476

band   1 # energy   -2.01960375 # occ.  2.00000000
 
ion      s      p      d    tot
  1  0.262  0.020  0.000  0.282
 
band   2 # energy   18.06291486 # occ.  0.00000000
 
ion      s      p      d    tot