Al                                      
   3.97500000000000     
     0.000000    0.500000    0.500000
     0.500000    0.000000    0.500000
     0.500000    0.500000    0.000000
   Al
     1
Direct
  0.000000  0.000000  0.000000
 
   28   28   28
 -.13730     -.41458E-01 0.23839     0.67687      1.2273      1.8233      2.3903      2.8624      3.1991      3.3938    
  3.4706      3.4725      3.4406      3.4068      3.3930      3.4068      3.4406      3.4725      3.4706      3.3938    
  3.1991      2.8624      2.3903      1.8233      1.2273     0.67687     0.23839     -.41458E-01 -.41458E-01 0.14644    
 0.50588      1.0007      1.5738      2.1534      2.6682      3.0648      3.3202      3.4449      3.4744      3.4526    
  3.4150      3.3888      3.3888      3.4150      3.4525      3.4744      3.4449      3.3202      3.0648      2.6682    
  2.1534      1.5738      1.0007     0.50585     0.14642     -.41466E-01 0.23839     0.50588     0.92211      1.4399    
  1.9948      2.5162      2.9435      3.2412      3.4059      3.4625      3.4525      3.4139      3.3771      3.3625    
  3.3771      3.4139      3.4525      3.4625      3.4059      3.2413      2.9435      2.5162      1.9948      1.4399    
 0.92206     0.50584     0.23837     0.14642     0.67687      1.0007      1.4399      1.9391      2.4330      2.8595    
  3.1754      3.3655      3.4436      3.4445      3.4063      3.3605      3.3311      3.3311      3.3605      3.4063    
  3.4445      3.4436      3.3655      3.1754      2.8595      2.4329      1.9391      1.4399      1.0007     0.67683    
 0.50584     0.50585      1.2273      1.5738      1.9948      2.4330      2.8295      3.1382      3.3355      3.4253    
  3.4336      3.3957      3.3423      3.2991      3.2827      3.2991      3.3423      3.3957      3.4336      3.4253    
  3.3355      3.1382      2.8295      2.4329      1.9948      1.5738      1.2272      1.0007     0.92206      1.0007    
  1.8233      2.1534      2.5162      2.8595      3.1382      3.3245      3.4142      3.4248      3.3861      3.3263    
  3.2707      3.2381      3.2381      3.2707      3.3263      3.3861      3.4248      3.4142      3.3245      3.1382    
  2.8595      2.5162      2.1534      1.8233      1.5738      1.4399      1.4399      1.5738      2.3903      2.6682    
  2.9435      3.1754      3.3355      3.4142      3.4215      3.3804      3.3153      3.2497      3.2024      3.1854    
  3.2024      3.2497      3.3153      3.3804      3.4215      3.4142      3.3355      3.1754      2.9435      2.6682    
  2.3903      2.1534      1.9948      1.9391      1.9948      2.1534      2.8624      3.0648      3.2412      3.3655    
  3.4253      3.4248      3.3804      3.3115      3.2386      3.1796      3.1470      3.1470      3.1796      3.2386    
  3.3115      3.3804      3.4248      3.4253      3.3655      3.2413      3.0648      2.8624      2.6682      2.5162    
  2.4329      2.4329      2.5162      2.6682      3.1991      3.3202      3.4059      3.4436      3.4336      3.3861    
  3.3153      3.2386      3.1717      3.1269      3.1112      3.1269      3.1718      3.2386      3.3153      3.3861    
  3.4336      3.4436      3.4059      3.3203      3.1992      3.0648      2.9435      2.8595      2.8295      2.8595    
  2.9435      3.0648      3.3938      3.4449      3.4625      3.4445      3.3957      3.3263      3.2497      3.1796    
  3.1269      3.0988      3.0988      3.1269      3.1796      3.2497      3.3263      3.3957      3.4445      3.4625    
  3.4449      3.3938      3.3203      3.2413      3.1754      3.1382      3.1382      3.1754      3.2413      3.3202    
  3.4706      3.4744      3.4525      3.4063      3.3423      3.2707      3.2024      3.1470      3.1112      3.0988    
  3.1112      3.1470      3.2024      3.2707      3.3423      3.4063      3.4525      3.4744      3.4706      3.4449    
  3.4059      3.3655      3.3355      3.3245      3.3355      3.3655      3.4059      3.4449      3.4725      3.4526    
  3.4139      3.3605      3.2991      3.2381      3.1854      3.1470      3.1269      3.1269      3.1470      3.1854    
  3.2381      3.2991      3.3605      3.4139      3.4525      3.4725      3.4744      3.4625      3.4436      3.4253    
  3.4142      3.4142      3.4253      3.4436      3.4625      3.4744      3.4406      3.4150      3.3771      3.3311    
  3.2827      3.2381      3.2024      3.1796      3.1718      3.1796      3.2024      3.2381      3.2827      3.3311    
  3.3771      3.4150      3.4406      3.4525      3.4525      3.4445      3.4336      3.4248      3.4215      3.4248    
  3.4336      3.4445      3.4525      3.4525      3.4068      3.3888      3.3625      3.3311      3.2991      3.2707    
  3.2497      3.2386      3.2386      3.2497      3.2707      3.2991      3.3311      3.3625      3.3888      3.4068    
  3.4150      3.4139      3.4063      3.3957      3.3861      3.3804      3.3804      3.3861      3.3957      3.4063    
  3.4139      3.4150      3.3930      3.3888      3.3771      3.3605      3.3423      3.3263      3.3153      3.3115    
  3.3153      3.3263      3.3423      3.3605      3.3771      3.3888      3.3930      3.3888      3.3771      3.3605    
  3.3423      3.3263      3.3153      3.3115      3.3153      3.3263      3.3423      3.3605      3.3771      3.3888    
  3.4068      3.4150      3.4139      3.4063      3.3957      3.3861      3.3804      3.3804      3.3861      3.3957    
  3.4063      3.4139      3.4150      3.4068      3.3888      3.3625      3.3311      3.2991      3.2707      3.2497    
  3.2386      3.2386      3.2497      3.2707      3.2991      3.3311      3.3625      3.3888      3.4406      3.4525    
  3.4525      3.4445      3.4336      3.4248      3.4215      3.4248      3.4336      3.4445      3.4525      3.4525    
  3.4406      3.4150      3.3771      3.3311      3.2827      3.2381      3.2024      3.1796      3.1718      3.1796    
  3.2024      3.2381      3.2827      3.3311      3.3771      3.4150      3.4725      3.4744      3.4625      3.4436    
  3.4253      3.4142      3.4142      3.4253      3.4436      3.4625      3.4744      3.4725      3.4525      3.4139    
  3.3605      3.2991      3.2381      3.1854      3.1470      3.1269      3.1269      3.1470      3.1854      3.2381    
  3.2991      3.3605      3.4139      3.4526      3.4706      3.4449      3.4059      3.3655      3.3355      3.3245    
  3.3355      3.3655      3.4059      3.4449      3.4706      3.4744      3.4525      3.4063      3.3423      3.2707    
  3.2024      3.1470      3.1112      3.0988      3.1112      3.1470      3.2024      3.2707      3.3423      3.4063    
  3.4525      3.4744      3.3938      3.3202      3.2413      3.1754      3.1382      3.1382      3.1754      3.2413    
  3.3203      3.3938      3.4449      3.4625      3.4445      3.3957      3.3263      3.2497      3.1796      3.1269    
  3.0988      3.0988      3.1269      3.1796      3.2497      3.3263      3.3957      3.4445      3.4625      3.4449    
  3.1991      3.0648      2.9435      2.8595      2.8295      2.8595      2.9435      3.0648      3.1992      3.3203    
  3.4059      3.4436      3.4336      3.3861      3.3153      3.2386      3.1718      3.1269      3.1112      3.1269    
  3.1717      3.2386      3.3153      3.3861      3.4336      3.4436      3.4059      3.3202      2.8624      2.6682    
  2.5162      2.4329      2.4329      2.5162      2.6682      2.8624      3.0648      3.2413      3.3655      3.4253    
  3.4248      3.3804      3.3115      3.2386      3.1796      3.1470      3.1470      3.1796      3.2386      3.3115    
  3.3804      3.4248      3.4253      3.3655      3.2412      3.0648      2.3903      2.1534      1.9948      1.9391    
  1.9948      2.1534      2.3903      2.6682      2.9435      3.1754      3.3355      3.4142      3.4215      3.3804    
  3.3153      3.2497      3.2024      3.1854      3.2024      3.2497      3.3153      3.3804      3.4215      3.4142    
  3.3355      3.1754      2.9435      2.6682      1.8233      1.5738      1.4399      1.4399      1.5738      1.8233    
  2.1534      2.5162      2.8595      3.1382      3.3245      3.4142      3.4248      3.3861      3.3263      3.2707    
  3.2381      3.2381      3.2707      3.3263      3.3861      3.4248      3.4142      3.3245      3.1382      2.8595    
  2.5162      2.1534      1.2273      1.0007     0.92206      1.0007      1.2272      1.5738      1.9948      2.4329    
  2.8295      3.1382      3.3355      3.4253      3.4336      3.3957      3.3423      3.2991      3.2827      3.2991    
  3.3423      3.3957      3.4336      3.4253      3.3355      3.1382      2.8295      2.4330      1.9948      1.5738    
 0.67687     0.50585     0.50584     0.67683      1.0007      1.4399      1.9391      2.4329      2.8595      3.1754    
  3.3655      3.4436      3.4445      3.4063      3.3605      3.3311      3.3311      3.3605      3.4063      3.4445    
  3.4436      3.3655      3.1754      2.8595      2.4330      1.9391      1.4399      1.0007     0.23839     0.14642    
 0.23837     0.50584     0.92206      1.4399      1.9948      2.5162      2.9435      3.2413      3.4059      3.4625    
  3.4525      3.4139      3.3771      3.3625      3.3771      3.4139      3.4525      3.4625      3.4059      3.2412    
  2.9435      2.5162      1.9948      1.4399     0.92211     0.50588     -.41458E-01 -.41466E-01 0.14642     0.50585    
  1.0007      1.5738      2.1534      2.6682      3.0648      3.3202      3.4449      3.4744      3.4525      3.4150    
  3.3888      3.3888      3.4150      3.4526      3.4744      3.4449      3.3202      3.0648      2.6682      2.1534    
  1.5738      1.0007     0.50588     0.14644     -.41459E-01 0.14644     0.50588      1.0007      1.5738      2.1534    
  2.6682      3.0648      3.3202      3.4449      3.4744      3.4526      3.4150      3.3888      3.3888      3.4150    
  3.4525      3.4744      3.4449      3.3202      3.0648      2.6682      2.1534      1.5738      1.0007     0.50585    
 0.14642     -.41468E-01 0.14644     0.41968     0.84549      1.3763      1.9467      2.4845      2.9274      3.2384    
  3.4132      3.4765      3.4705      3.4342      3.3984      3.3841      3.3984      3.4342      3.4705      3.4765    
  3.4132      3.2384      2.9274      2.4845      1.9467      1.3763     0.84543     0.41963     0.14642     0.52576E-01
 0.50588     0.84549      1.3076      1.8352      2.3603      2.8177      3.1609      3.3727      3.4660      3.4762    
  3.4433      3.4002      3.3719      3.3719      3.4002      3.4433      3.4762      3.4660      3.3727      3.1609    
  2.8177      2.3603      1.8352      1.3075     0.84543     0.50583     0.32690     0.32691      1.0007      1.3763    
  1.8352      2.3165      2.7570      3.1059      3.3363      3.4502      3.4739      3.4451      3.3964      3.3553    
  3.3395      3.3553      3.3964      3.4450      3.4739      3.4502      3.3363      3.1059      2.7570      2.3165    
  1.8352      1.3763      1.0007     0.75601     0.67128     0.75604      1.5738      1.9467      2.3603      2.7570    
  3.0860      3.3150      3.4370      3.4689      3.4428      3.3899      3.3376      3.3060      3.3060      3.3375    
  3.3899      3.4428      3.4689      3.4370      3.3150      3.0860      2.7570      2.3603      1.9467      1.5738    
  1.2935      1.1436      1.1436      1.2935      2.1534      2.4845      2.8177      3.1059      3.3150      3.4319    
  3.4651      3.4399      3.3837      3.3222      3.2764      3.2597      3.2764      3.3222      3.3837      3.4399    
  3.4651      3.4319      3.3150      3.1059      2.8177      2.4845      2.1534      1.8739      1.6879      1.6228    
  1.6879      1.8739      2.6682      2.9274      3.1609      3.3363      3.4370      3.4651      3.4386      3.3800    
  3.3119      3.2545      3.2223      3.2223      3.2545      3.3119      3.3800      3.4386      3.4651      3.4370    
  3.3363      3.1609      2.9274      2.6682      2.4241      2.2351      2.1322      2.1322      2.2351      2.4241    
  3.0648      3.2384      3.3727      3.4502      3.4689      3.4399      3.3800      3.3082      3.2430      3.1982    
  3.1823      3.1982      3.2430      3.3082      3.3800      3.4399      3.4688      3.4502      3.3727      3.2384    
  3.0648      2.8801      2.7172      2.6058      2.5662      2.6058      2.7172      2.8801      3.3202      3.4132    
  3.4660      3.4739      3.4428      3.3837      3.3119      3.2430      3.1899      3.1613      3.1613      3.1899    
  3.2430      3.3119      3.3837      3.4428      3.4739      3.4660      3.4132      3.3203      3.2030      3.0841    
  2.9879      2.9343      2.9343      2.9879      3.0841      3.2029      3.4449      3.4765      3.4762      3.4451    
  3.3899      3.3222      3.2545      3.1982      3.1613      3.1485      3.1613      3.1982      3.2545      3.3222    
  3.3899      3.4450      3.4762      3.4765      3.4449      3.3870      3.3155      3.2474      3.1988      3.1812    
  3.1988      3.2474      3.3155      3.3870      3.4744      3.4705      3.4433      3.3964      3.3376      3.2764    
  3.2223      3.1823      3.1613      3.1613      3.1823      3.2223      3.2764      3.3375      3.3964      3.4433    
  3.4705      3.4744      3.4565      3.4229      3.3832      3.3484      3.3283      3.3283      3.3484      3.3832    
  3.4229      3.4565      3.4526      3.4342      3.4002      3.3553      3.3060      3.2597      3.2223      3.1982    
  3.1899      3.1982      3.2223      3.2597      3.3060      3.3553      3.4002      3.4342      3.4525      3.4541    
  3.4416      3.4207      3.3986      3.3819      3.3758      3.3819      3.3986      3.4207      3.4416      3.4542    
  3.4150      3.3984      3.3719      3.3395      3.3060      3.2764      3.2545      3.2430      3.2430      3.2545    
  3.2764      3.3060      3.3395      3.3719      3.3984      3.4150      3.4197      3.4135      3.3995      3.3825    
  3.3676      3.3591      3.3591      3.3677      3.3825      3.3995      3.4135      3.4197      3.3888      3.3841    
  3.3719      3.3553      3.3375      3.3222      3.3119      3.3082      3.3119      3.3222      3.3375      3.3553    
  3.3719      3.3841      3.3888      3.3848      3.3726      3.3546      3.3345      3.3164      3.3039      3.2995    
  3.3039      3.3164      3.3345      3.3546      3.3726      3.3848      3.3888      3.3984      3.4002      3.3964    
  3.3899      3.3837      3.3800      3.3800      3.3837      3.3899      3.3964      3.4002      3.3984      3.3888    
  3.3707      3.3451      3.3149      3.2838      3.2561      3.2354      3.2243      3.2243      3.2354      3.2561    
  3.2838      3.3149      3.3451      3.3707      3.4150      3.4342      3.4433      3.4450      3.4428      3.4399    
  3.4386      3.4399      3.4428      3.4450      3.4433      3.4342      3.4150      3.3848      3.3451      3.2994    
  3.2526      3.2099      3.1760      3.1542      3.1468      3.1542      3.1760      3.2099      3.2526      3.2994    
  3.3451      3.3848      3.4525      3.4705      3.4762      3.4739      3.4689      3.4651      3.4651      3.4688    
  3.4739      3.4762      3.4705      3.4525      3.4197      3.3726      3.3149      3.2526      3.1928      3.1421    
  3.1055      3.0865      3.0865      3.1055      3.1421      3.1928      3.2526      3.3149      3.3726      3.4197    
  3.4744      3.4765      3.4660      3.4502      3.4370      3.4319      3.4370      3.4502      3.4660      3.4765    
  3.4744      3.4541      3.4135      3.3546      3.2838      3.2099      3.1421      3.0882      3.0538      3.0420    
  3.0538      3.0882      3.1421      3.2099      3.2838      3.3546      3.4135      3.4542      3.4449      3.4132    
  3.3727      3.3363      3.3150      3.3150      3.3363      3.3727      3.4132      3.4449      3.4565      3.4416    
  3.3995      3.3345      3.2561      3.1760      3.1055      3.0538      3.0265      3.0265      3.0538      3.1055    
  3.1760      3.2561      3.3345      3.3995      3.4416      3.4565      3.3202      3.2384      3.1609      3.1059    
  3.0860      3.1059      3.1609      3.2384      3.3203      3.3870      3.4229      3.4207      3.3825      3.3164    
  3.2354      3.1542      3.0865      3.0420      3.0265      3.0420      3.0865      3.1542      3.2354      3.3164    
  3.3825      3.4208      3.4229      3.3870      3.0648      2.9274      2.8177      2.7570      2.7570      2.8177    
  2.9274      3.0648      3.2030      3.3155      3.3832      3.3986      3.3676      3.3039      3.2243      3.1468    
  3.0865      3.0538      3.0538      3.0865      3.1468      3.2243      3.3039      3.3677      3.3986      3.3832    
  3.3155      3.2029      2.6682      2.4845      2.3603      2.3165      2.3603      2.4845      2.6682      2.8801    
  3.0841      3.2474      3.3484      3.3819      3.3591      3.2995      3.2243      3.1542      3.1055      3.0882    
  3.1055      3.1542      3.2243      3.2995      3.3591      3.3819      3.3484      3.2474      3.0841      2.8801    
  2.1534      1.9467      1.8352      1.8352      1.9467      2.1534      2.4241      2.7172      2.9879      3.1988    
  3.3283      3.3758      3.3591      3.3039      3.2354      3.1760      3.1421      3.1421      3.1760      3.2354    
  3.3039      3.3591      3.3758      3.3283      3.1988      2.9879      2.7172      2.4241      1.5738      1.3763    
  1.3075      1.3763      1.5738      1.8739      2.2351      2.6058      2.9343      3.1812      3.3283      3.3819    
  3.3677      3.3164      3.2561      3.2099      3.1928      3.2099      3.2561      3.3164      3.3677      3.3819    
  3.3283      3.1812      2.9343      2.6058      2.2351      1.8739      1.0007     0.84543     0.84543      1.0007    
  1.2935      1.6879      2.1322      2.5662      2.9343      3.1988      3.3484      3.3986      3.3825      3.3345    
  3.2838      3.2526      3.2526      3.2838      3.3345      3.3825      3.3986      3.3484      3.1988      2.9343    
  2.5662      2.1322      1.6880      1.2935     0.50585     0.41963     0.50583     0.75601      1.1436      1.6228    
  2.1322      2.6058      2.9879      3.2474      3.3832      3.4207      3.3995      3.3546      3.3149      3.2994    
  3.3149      3.3546      3.3995      3.4208      3.3832      3.2474      2.9879      2.6058      2.1322      1.6228    
  1.1436     0.75604     0.14642     0.14642     0.32690     0.67128      1.1436      1.6879      2.2351      2.7172    
  3.0841      3.3155      3.4229      3.4416      3.4135      3.3726      3.3451      3.3451      3.3726      3.4135    
  3.4416      3.4229      3.3155      3.0841      2.7172      2.2351      1.6880      1.1436     0.67131     0.32691    
 -.41468E-01 0.52576E-01 0.32691     0.75604      1.2935      1.8739      2.4241      2.8801      3.2029      3.3870    
  3.4565      3.4542      3.4197      3.3848      3.3707      3.3848      3.4197      3.4542      3.4565      3.3870    
  3.2029      2.8801      2.4241      1.8739      1.2935     0.75604     0.32691     0.52575E-01 0.23839     0.50588    
 0.92211      1.4399      1.9948      2.5162      2.9435      3.2412      3.4059      3.4625      3.4525      3.4139    
  3.3771      3.3625      3.3771      3.4139      3.4525      3.4625      3.4059      3.2413      2.9435      2.5162    
  1.9948      1.4399     0.92206     0.50584     0.23837     0.14642     0.50588     0.84549      1.3076      1.8352    
  2.3603      2.8177      3.1609      3.3726      3.4660      3.4762      3.4433      3.4002      3.3719      3.3719    
  3.4002      3.4433      3.4762      3.4660      3.3727      3.1609      2.8177      2.3603      1.8352      1.3075    
 0.84543     0.50583     0.32690     0.32691     0.92211      1.3076      1.7794      2.2755      2.7311      3.0939    
  3.3359      3.4583      3.4875      3.4618      3.4149      3.3745      3.3589      3.3745      3.4148      3.4618    
  3.4875      3.4583      3.3359      3.0939      2.7311      2.2754      1.7794      1.3075     0.92206     0.67127    
 0.58448     0.67131      1.4399      1.8352      2.2755      2.7003      3.0561      3.3080      3.4474      3.4909    
  3.4717      3.4227      3.3721      3.3412      3.3412      3.3721      3.4227      3.4717      3.4909      3.4474    
  3.3080      3.0561      2.7003      2.2754      1.8352      1.4399      1.1436     0.98547     0.98548      1.1436    
  1.9948      2.3603      2.7311      3.0561      3.2976      3.4399      3.4908      3.4762      3.4260      3.3674    
  3.3228      3.3062      3.3227      3.3674      3.4260      3.4762      3.4908      3.4399      3.2977      3.0561    
  2.7311      2.3603      1.9948      1.6879      1.4844      1.4132      1.4844      1.6880      2.5162      2.8177    
  3.0939      3.3080      3.4399      3.4903      3.4777      3.4270      3.3628      3.3069      3.2750      3.2750    
  3.3069      3.3628      3.4270      3.4777      3.4903      3.4399      3.3080      3.0940      2.8177      2.5162    
  2.2351      2.0188      1.9014      1.9014      2.0188      2.2351      2.9435      3.1609      3.3359      3.4474    
  3.4908      3.4777      3.4272      3.3601      3.2964      3.2519      3.2360      3.2519      3.2964      3.3601    
  3.4272      3.4777      3.4908      3.4474      3.3359      3.1609      2.9435      2.7172      2.5200      2.3860    
  2.3386      2.3860      2.5200      2.7172      3.2412      3.3726      3.4583      3.4909      3.4762      3.4270    
  3.3601      3.2927      3.2396      3.2106      3.2107      3.2396      3.2927      3.3601      3.4270      3.4762    
  3.4909      3.4583      3.3727      3.2413      3.0841      2.9291      2.8056      2.7371      2.7371      2.8055    
  2.9291      3.0841      3.4059      3.4660      3.4875      3.4717      3.4260      3.3628      3.2964      3.2396    
  3.2019      3.1888      3.2019      3.2396      3.2964      3.3628      3.4260      3.4717      3.4875      3.4660    
  3.4059      3.3155      3.2120      3.1164      3.0494      3.0253      3.0494      3.1164      3.2119      3.3155    
  3.4625      3.4762      3.4618      3.4227      3.3674      3.3069      3.2519      3.2106      3.1888      3.1888    
  3.2107      3.2519      3.3069      3.3674      3.4227      3.4618      3.4762      3.4625      3.4229      3.3654    
  3.3030      3.2505      3.2206      3.2206      3.2505      3.3030      3.3654      3.4229      3.4525      3.4433    
  3.4149      3.3721      3.3228      3.2750      3.2360      3.2107      3.2019      3.2107      3.2360      3.2750    
  3.3228      3.3721      3.4149      3.4433      3.4525      3.4416      3.4145      3.3785      3.3429      3.3169    
  3.3074      3.3169      3.3429      3.3785      3.4145      3.4416      3.4139      3.4002      3.3745      3.3412    
  3.3062      3.2750      3.2519      3.2396      3.2396      3.2519      3.2750      3.3062      3.3412      3.3745    
  3.4002      3.4139      3.4135      3.4000      3.3775      3.3522      3.3308      3.3185      3.3185      3.3308    
  3.3523      3.3775      3.4000      3.4135      3.3771      3.3719      3.3589      3.3412      3.3227      3.3069    
  3.2964      3.2927      3.2964      3.3069      3.3228      3.3412      3.3589      3.3719      3.3771      3.3726    
  3.3587      3.3379      3.3143      3.2928      3.2778      3.2725      3.2778      3.2928      3.3143      3.3379    
  3.3587      3.3726      3.3625      3.3719      3.3745      3.3721      3.3674      3.3628      3.3601      3.3601    
  3.3628      3.3674      3.3721      3.3745      3.3719      3.3625      3.3451      3.3205      3.2911      3.2603    
  3.2324      3.2112      3.1999      3.1999      3.2112      3.2324      3.2603      3.2911      3.3205      3.3451    
  3.3771      3.4002      3.4148      3.4227      3.4260      3.4270      3.4272      3.4270      3.4260      3.4227    
  3.4149      3.4002      3.3771      3.3451      3.3055      3.2612      3.2164      3.1757      3.1432      3.1224    
  3.1152      3.1224      3.1432      3.1756      3.2164      3.2612      3.3055      3.3451      3.4139      3.4433    
  3.4618      3.4717      3.4762      3.4777      3.4777      3.4762      3.4717      3.4618      3.4433      3.4139    
  3.3726      3.3205      3.2612      3.1998      3.1422      3.0939      3.0594      3.0414      3.0414      3.0594    
  3.0939      3.1422      3.1998      3.2612      3.3205      3.3726      3.4525      3.4762      3.4875      3.4909    
  3.4908      3.4903      3.4908      3.4909      3.4875      3.4762      3.4525      3.4135      3.3587      3.2911    
  3.2164      3.1422      3.0761      3.0244      2.9917      2.9806      2.9917      3.0244      3.0761      3.1422    
  3.2164      3.2911      3.3587      3.4135      3.4625      3.4660      3.4583      3.4474      3.4399      3.4399    
  3.4474      3.4583      3.4660      3.4625      3.4416      3.4000      3.3379      3.2603      3.1757      3.0939    
  3.0244      2.9743      2.9482      2.9482      2.9743      3.0244      3.0939      3.1757      3.2603      3.3379    
  3.4000      3.4416      3.4059      3.3727      3.3359      3.3080      3.2977      3.3080      3.3359      3.3727    
  3.4059      3.4229      3.4145      3.3775      3.3143      3.2324      3.1432      3.0594      2.9917      2.9482    
  2.9332      2.9482      2.9917      3.0594      3.1432      3.2324      3.3143      3.3775      3.4145      3.4229    
  3.2413      3.1609      3.0939      3.0561      3.0561      3.0940      3.1609      3.2413      3.3155      3.3654    
  3.3785      3.3522      3.2928      3.2112      3.1224      3.0414      2.9806      2.9482      2.9482      2.9806    
  3.0414      3.1224      3.2112      3.2928      3.3523      3.3785      3.3654      3.3155      2.9435      2.8177    
  2.7311      2.7003      2.7311      2.8177      2.9435      3.0841      3.2120      3.3030      3.3429      3.3308    
  3.2778      3.1999      3.1152      3.0414      2.9917      2.9743      2.9917      3.0414      3.1152      3.1999    
  3.2778      3.3308      3.3429      3.3030      3.2119      3.0841      2.5162      2.3603      2.2754      2.2754    
  2.3603      2.5162      2.7172      2.9291      3.1164      3.2505      3.3169      3.3185      3.2725      3.1999    
  3.1224      3.0594      3.0244      3.0244      3.0594      3.1224      3.1999      3.2725      3.3185      3.3169    
  3.2505      3.1164      2.9291      2.7172      1.9948      1.8352      1.7794      1.8352      1.9948      2.2351    
  2.5200      2.8056      3.0494      3.2206      3.3074      3.3185      3.2778      3.2112      3.1432      3.0939    
  3.0761      3.0939      3.1432      3.2112      3.2778      3.3185      3.3074      3.2206      3.0494      2.8055    
  2.5200      2.2351      1.4399      1.3075      1.3075      1.4399      1.6879      2.0188      2.3860      2.7371    
  3.0253      3.2206      3.3169      3.3308      3.2928      3.2324      3.1756      3.1422      3.1422      3.1757    
  3.2324      3.2928      3.3308      3.3169      3.2206      3.0253      2.7371      2.3860      2.0188      1.6879    
 0.92206     0.84543     0.92206      1.1436      1.4844      1.9014      2.3386      2.7371      3.0494      3.2505    
  3.3429      3.3523      3.3143      3.2603      3.2164      3.1998      3.2164      3.2603      3.3143      3.3523    
  3.3429      3.2505      3.0494      2.7371      2.3386      1.9014      1.4844      1.1436     0.50584     0.50583    
 0.67127     0.98547      1.4132      1.9014      2.3860      2.8055      3.1164      3.3030      3.3785      3.3775    
  3.3379      3.2911      3.2612      3.2612      3.2911      3.3379      3.3775      3.3785      3.3030      3.1164    
  2.8055      2.3860      1.9014      1.4133     0.98549     0.67128     0.23837     0.32690     0.58448     0.98548    
  1.4844      2.0188      2.5200      2.9291      3.2119      3.3654      3.4145      3.4000      3.3587      3.3205    
  3.3055      3.3205      3.3587      3.4000      3.4145      3.3654      3.2119      2.9291      2.5200      2.0188    
  1.4844     0.98549     0.58448     0.32690     0.14642     0.32691     0.67131      1.1436      1.6880      2.2351    
  2.7172      3.0841      3.3155      3.4229      3.4416      3.4135      3.3726      3.3451      3.3451      3.3726    
  3.4135      3.4416      3.4229      3.3155      3.0841      2.7172      2.2351      1.6879      1.1436     0.67128    
 0.32690     0.14642     0.67687      1.0007      1.4399      1.9391      2.4330      2.8595      3.1754      3.3655    
  3.4436      3.4445      3.4063      3.3605      3.3311      3.3311      3.3605      3.4063      3.4445      3.4436    
  3.3655      3.1754      2.8595      2.4329      1.9391      1.4399      1.0007     0.67683     0.50584     0.50585    
  1.0007      1.3763      1.8352      2.3165      2.7570      3.1059      3.3363      3.4502      3.4739      3.4451    
  3.3964      3.3553      3.3395      3.3553      3.3964      3.4450      3.4739      3.4502      3.3363      3.1059    
  2.7570      2.3165      1.8352      1.3763      1.0007     0.75601     0.67128     0.75604      1.4399      1.8352    
  2.2755      2.7003      3.0561      3.3080      3.4474      3.4909      3.4717      3.4227      3.3721      3.3412    
  3.3412      3.3721      3.4227      3.4717      3.4909      3.4474      3.3080      3.0561      2.7003      2.2754    
  1.8352      1.4399      1.1436     0.98547     0.98549      1.1436      1.9391      2.3165      2.7003      3.0381    
  3.2910      3.4421      3.4992      3.4884      3.4404      3.3828      3.3385      3.3221      3.3385      3.3828    