   1   1   0   0
  0.1570187E+02  0.2810749E-09  0.2810749E-09  0.2810749E-09  0.5000000E-15
  1.000000000000000E-004
  CAR 
 Al                                      
     46.87190691     -5.32330901  301      7.78066461      1.00000000
     -5.323  0.0000E+00  0.0000E+00
     -5.149  0.0000E+00  0.0000E+00
     -4.975  0.0000E+00  0.0000E+00
     -4.801  0.0000E+00  0.0000E+00
     -4.627 -0.2796E-30 -0.4864E-31
     -4.453 -0.2606E-24 -0.4535E-25
     -4.279 -0.5308E-19 -0.9234E-20
     -4.105 -0.2279E-14 -0.3965E-15
     -3.931 -0.2179E-10 -0.3791E-11
     -3.757 -0.4446E-07 -0.7739E-08
     -3.583 -0.1904E-04 -0.3321E-05
     -3.409 -0.1623E-02 -0.2857E-03
     -3.236 -0.2186E-01 -0.4089E-02
     -3.062  0.5803E-01  0.6007E-02
     -2.888  0.5748E+00  0.1060E+00
     -2.714  0.6366E+00  0.2168E+00
     -2.540  0.3515E+00  0.2779E+00
     -2.366  0.2674E+00  0.3244E+00
     -2.192  0.2392E+00  0.3661E+00
     -2.018  0.2046E+00  0.4016E+00
     -1.844  0.1968E+00  0.4359E+00
     -1.670  0.1731E+00  0.4660E+00
     -1.496  0.1674E+00  0.4951E+00
     -1.322  0.1594E+00  0.5229E+00
     -1.148  0.1373E+00  0.5468E+00
     -0.974  0.1580E+00  0.5742E+00
     -0.800  0.1228E+00  0.5956E+00
     -0.626  0.1267E+00  0.6176E+00
     -0.452  0.1469E+00  0.6432E+00
     -0.278  0.9736E-01  0.6601E+00
     -0.104  0.1263E+00  0.6821E+00
      0.070  0.1176E+00  0.7026E+00
      0.244  0.1141E+00  0.7224E+00
      0.418  0.1014E+00  0.7401E+00
      0.592  0.8727E-01  0.7552E+00
      0.766  0.1396E+00  0.7795E+00
      0.940  0.1092E+00  0.7985E+00
      1.114  0.2826E-01  0.8035E+00
      1.288  0.1291E+00  0.8259E+00
      1.462  0.1698E+00  0.8555E+00
      1.636  0.2604E-01  0.8600E+00
      1.810  0.2301E-01  0.8640E+00
      1.984  0.1834E+00  0.8959E+00
      2.158  0.1361E+00  0.9196E+00
      2.332  0.1004E-03  0.9196E+00
      2.506  0.3481E-01  0.9257E+00
      2.680  0.1683E+00  0.9549E+00
      2.854  0.1336E+00  0.9782E+00
      3.028  0.1424E-01  0.9807E+00
      3.202  0.4596E-01  0.9886E+00
      3.376  0.8601E-01  0.1004E+01
      3.550  0.1385E+00  0.1028E+01
      3.724  0.2491E+00  0.1071E+01
      3.898  0.3714E+00  0.1136E+01
      4.072  0.3908E+00  0.1204E+01
      4.246  0.5904E+00  0.1306E+01
      4.420  0.4813E+00  0.1390E+01
      4.594  0.2982E+00  0.1442E+01
      4.768  0.2763E+00  0.1490E+01
      4.942  0.2192E+00  0.1528E+01
      5.116  0.2593E+00  0.1573E+01
      5.290  0.2821E+00  0.1622E+01
      5.464  0.3020E+00  0.1675E+01
      5.638  0.2404E+00  0.1717E+01
      5.812  0.1406E+00  0.1741E+01
      5.986  0.1238E+00  0.1763E+01
      6.160  0.2396E+00  0.1804E+01
      6.334  0.2097E+00  0.1841E+01
      6.508  0.3437E+00  0.1901E+01
      6.682  0.7556E+00  0.2032E+01
      6.856  0.6736E+00  0.2149E+01
      7.030  0.7963E+00  0.2288E+01
      7.204  0.1156E+01  0.2489E+01
      7.378  0.9683E+00  0.2658E+01
      7.552  0.9159E+00  0.2817E+01
      7.725  0.8695E+00  0.2968E+01
      7.899  0.3727E+00  0.3033E+01
      8.073  0.2700E-01  0.3038E+01
      8.247  0.4508E+00  0.3116E+01
      8.421  0.8698E+00  0.3268E+01
      8.595  0.8078E+00  0.3408E+01
      8.769  0.8006E+00  0.3547E+01
      8.943  0.3237E+00  0.3604E+01
      9.117  0.1102E+00  0.3623E+01
      9.291  0.1224E+00  0.3644E+01
      9.465  0.1699E+00  0.3674E+01
      9.639  0.1967E+00  0.3708E+01
      9.813  0.1921E+00  0.3741E+01
      9.987  0.3545E+00  0.3803E+01
     10.161  0.4043E+00  0.3873E+01
     10.335  0.3591E+00  0.3936E+01
     10.509  0.2718E+00  0.3983E+01
     10.683  0.2946E+00  0.4034E+01
     10.857  0.2513E+00  0.4078E+01
     11.031  0.1738E+00  0.4108E+01
     11.205  0.2116E+00  0.4145E+01
     11.379  0.2344E+00  0.4186E+01
     11.553  0.2340E+00  0.4227E+01
     11.727  0.2761E+00  0.4275E+01
     11.901  0.2292E+00  0.4315E+01
     12.075  0.2206E+00  0.4353E+01
     12.249  0.1284E+00  0.4375E+01
     12.423  0.8721E-01  0.4391E+01
     12.597  0.2797E+00  0.4439E+01
     12.771  0.4462E+00  0.4517E+01
     12.945  0.1419E+00  0.4542E+01
     13.119  0.3308E-01  0.4547E+01
     13.293  0.1612E+00  0.4575E+01
     13.467  0.2684E+00  0.4622E+01
     13.641  0.2496E+00  0.4665E+01
     13.815  0.2420E+00  0.4708E+01
     13.989  0.4909E+00  0.4793E+01
     14.163  0.3047E+00  0.4846E+01
     14.337  0.4176E+00  0.4919E+01
     14.511  0.7317E+00  0.5046E+01
     14.685  0.7142E+00  0.5170E+01
     14.859  0.4535E+00  0.5249E+01
     15.033  0.3474E+00  0.5310E+01
     15.207  0.4882E+00  0.5394E+01
     15.381  0.5392E+00  0.5488E+01
     15.555  0.4636E+00  0.5569E+01
     15.729  0.2697E+00  0.5616E+01
     15.903  0.3713E+00  0.5680E+01
     16.077  0.3632E+00  0.5744E+01
     16.251  0.2988E+00  0.5796E+01
     16.425  0.2247E+00  0.5835E+01
     16.599  0.3999E+00  0.5904E+01
     16.773  0.2796E+00  0.5953E+01
     16.947  0.4108E+00  0.6024E+01
     17.121  0.5124E+00  0.6114E+01
     17.295  0.2227E+00  0.6152E+01
     17.469  0.3241E+00  0.6209E+01
     17.643  0.5326E+00  0.6301E+01
     17.817  0.3978E+00  0.6371E+01
     17.991  0.3951E+00  0.6439E+01
     18.165  0.6103E+00  0.6546E+01
     18.339  0.4469E+00  0.6623E+01
     18.513  0.3070E+00  0.6677E+01
     18.686  0.5409E+00  0.6771E+01
     18.860  0.5053E+00  0.6859E+01
     19.034  0.3775E+00  0.6924E+01
     19.208  0.4319E+00  0.7000E+01
     19.382  0.3640E+00  0.7063E+01
     19.556  0.4350E+00  0.7139E+01
     19.730  0.9512E+00  0.7304E+01
     19.904  0.1398E+01  0.7547E+01
     20.078  0.1108E+01  0.7740E+01
     20.252  0.9331E+00  0.7903E+01
     20.426  0.9513E+00  0.8068E+01
     20.600  0.8742E+00  0.8220E+01
     20.774  0.7310E+00  0.8347E+01
     20.948  0.7991E+00  0.8486E+01
     21.122  0.8108E+00  0.8627E+01
     21.296  0.8983E+00  0.8784E+01
     21.470  0.1207E+01  0.8994E+01
     21.644  0.1356E+01  0.9230E+01
     21.818  0.7079E+00  0.9353E+01
     21.992  0.6641E+00  0.9468E+01
     22.166  0.4709E+00  0.9550E+01
     22.340  0.5742E+00  0.9650E+01
     22.514  0.4495E+00  0.9728E+01
     22.688  0.4935E+00  0.9814E+01
     22.862  0.4845E+00  0.9899E+01
     23.036  0.3487E+00  0.9959E+01
     23.210  0.7825E+00  0.1010E+02
     23.384  0.1810E+01  0.1041E+02
     23.558  0.1700E+01  0.1071E+02
     23.732  0.1426E+01  0.1095E+02
     23.906  0.1041E+01  0.1114E+02
     24.080  0.8731E+00  0.1129E+02
     24.254  0.6868E+00  0.1141E+02
     24.428  0.6849E+00  0.1153E+02
     24.602  0.1054E+01  0.1171E+02
     24.776  0.1296E+01  0.1193E+02
     24.950  0.1759E+01  0.1224E+02
     25.124  0.1251E+01  0.1246E+02
     25.298  0.1017E+01  0.1264E+02
     25.472  0.1141E+01  0.1283E+02
     25.646  0.1160E+01  0.1304E+02
     25.820  0.5958E+00  0.1314E+02
     25.994  0.3759E+00  0.1320E+02
     26.168  0.6914E+00  0.1333E+02
     26.342  0.8525E+00  0.1347E+02
     26.516  0.6875E+00  0.1359E+02
     26.690  0.7937E+00  0.1373E+02
     26.864  0.3747E+00  0.1380E+02
     27.038  0.5299E+00  0.1389E+02
     27.212  0.1104E+01  0.1408E+02
     27.386  0.5272E+00  0.1417E+02
     27.560  0.3788E+00  0.1424E+02
     27.734  0.1147E+01  0.1444E+02
     27.908  0.9471E+00  0.1460E+02
     28.082  0.5862E+00  0.1470E+02
     28.256  0.1041E+01  0.1489E+02
     28.430  0.9243E+00  0.1505E+02
     28.604  0.9798E+00  0.1522E+02
     28.778  0.1081E+01  0.1541E+02
     28.952  0.7522E+00  0.1554E+02
     29.126  0.8569E+00  0.1569E+02
     29.300  0.8935E+00  0.1584E+02
     29.474  0.5785E+00  0.1594E+02
     29.647  0.7411E+00  0.1607E+02
     29.821  0.5915E+00  0.1617E+02
     29.995  0.5477E+00  0.1627E+02
     30.169  0.6436E+00  0.1638E+02
     30.343  0.6252E+00  0.1649E+02
     30.517  0.5142E+00  0.1658E+02
     30.691  0.6947E+00  0.1670E+02
     30.865  0.6917E+00  0.1682E+02
     31.039  0.6180E+00  0.1693E+02
     31.213  0.5402E+00  0.1702E+02
     31.387  0.7975E+00  0.1716E+02
     31.561  0.1202E+01  0.1737E+02
     31.735  0.5626E+00  0.1747E+02
     31.909  0.4418E+00  0.1754E+02
     32.083  0.3960E+00  0.1761E+02
     32.257  0.2855E+00  0.1766E+02
     32.431  0.3583E+00  0.1772E+02
     32.605  0.7116E+00  0.1785E+02
     32.779  0.6598E+00  0.1796E+02
     32.953  0.4119E+00  0.1804E+02
     33.127  0.4655E+00  0.1812E+02
     33.301  0.4466E+00  0.1819E+02
     33.475  0.6023E+00  0.1830E+02
     33.649  0.6319E+00  0.1841E+02
     33.823  0.4496E+00  0.1849E+02
     33.997  0.7773E+00  0.1862E+02
     34.171  0.1361E+01  0.1886E+02
     34.345  0.1200E+01  0.1907E+02
     34.519  0.8339E+00  0.1921E+02
     34.693  0.6505E+00  0.1933E+02
     34.867  0.8986E+00  0.1948E+02
     35.041  0.6543E+00  0.1960E+02
     35.215  0.1719E+00  0.1963E+02
     35.389  0.3712E+00  0.1969E+02
     35.563  0.6500E+00  0.1980E+02
     35.737  0.3600E+00  0.1987E+02
     35.911  0.2698E+00  0.1991E+02
     36.085  0.3784E+00  0.1998E+02
     36.259  0.6502E+00  0.2009E+02
     36.433  0.7084E+00  0.2022E+02
     36.607  0.6925E+00  0.2034E+02
     36.781  0.6049E+00  0.2044E+02
     36.955  0.3580E+00  0.2050E+02
     37.129  0.8104E-01  0.2052E+02
     37.303  0.1948E+00  0.2055E+02
     37.477  0.5512E+00  0.2065E+02
     37.651  0.4888E+00  0.2073E+02
     37.825  0.2293E+00  0.2077E+02
     37.999  0.1631E+00  0.2080E+02
     38.173  0.1847E+00  0.2083E+02
     38.347  0.3518E+00  0.2089E+02
     38.521  0.2614E+00  0.2094E+02
     38.695  0.1428E+00  0.2096E+02
     38.869  0.1694E+00  0.2099E+02
     39.043  0.1993E+00  0.2103E+02
     39.217  0.2531E+00  0.2107E+02
     39.391  0.2693E+00  0.2112E+02
     39.565  0.2702E+00  0.2117E+02
     39.739  0.2759E+00  0.2121E+02
     39.913  0.1541E+00  0.2124E+02
     40.087  0.8116E-01  0.2126E+02
     40.261  0.3405E+00  0.2131E+02
     40.434  0.1171E+01  0.2152E+02
     40.608  0.1281E+01  0.2174E+02
     40.782  0.7949E+00  0.2188E+02
     40.956  0.4093E+00  0.2195E+02
     41.130  0.4329E+00  0.2203E+02
     41.304  0.5667E+00  0.2212E+02
     41.478  0.5568E+00  0.2222E+02
     41.652  0.5822E+00  0.2232E+02
     41.826  0.4012E+00  0.2239E+02
     42.000  0.3623E+00  0.2246E+02
     42.174  0.6766E+00  0.2257E+02
     42.348  0.7932E+00  0.2271E+02
     42.522  0.4656E+00  0.2279E+02
     42.696  0.5660E+00  0.2289E+02
     42.870  0.5051E+00  0.2298E+02
     43.044  0.2523E+00  0.2302E+02
     43.218  0.5450E+00  0.2312E+02
     43.392  0.6062E+00  0.2322E+02
     43.566  0.7002E+00  0.2334E+02
     43.740  0.9732E+00  0.2351E+02
     43.914  0.5536E+00  0.2361E+02
     44.088  0.5569E+00  0.2371E+02
     44.262  0.7514E+00  0.2384E+02
     44.436  0.7114E+00  0.2396E+02
     44.610  0.2387E+00  0.2400E+02
     44.784 -0.1005E-01  0.2400E+02
     44.958 -0.7739E-02  0.2400E+02
     45.132 -0.4175E-03  0.2400E+02
     45.306 -0.4646E-05  0.2400E+02
     45.480 -0.1105E-07  0.2400E+02
     45.654 -0.5625E-11  0.2400E+02
     45.828 -0.6126E-15  0.2400E+02
     46.002  0.0000E+00  0.2400E+02
     46.176  0.0000E+00  0.2400E+02
     46.350  0.0000E+00  0.2400E+02
     46.524  0.0000E+00  0.2400E+02
     46.698  0.0000E+00  0.2400E+02
     46.872  0.0000E+00  0.2400E+02
