    1    1    1    1
  0.1570187E+02  0.2810749E-09  0.2810749E-09  0.2810749E-09  0.5000000E-15
  1.000000000000000E-004
  CAR 
 Al                                      
    3  100   12
 
  0.5000000E+00  0.0000000E+00  0.5000000E+00  0.1000000E-01
   1        5.487991
   2        6.923890
   3       13.831751
   4       14.364105
   5       14.364112
   6       18.099776
   7       34.911496
   8       36.506148
   9       36.506151
  10       42.076176
  11       43.190970
  12       43.196700
 
  0.4736842E+00  0.0000000E+00  0.4736842E+00  0.1000000E-01
   1        5.048076
   2        7.410465
   3       13.858512
   4       14.386043
   5       14.386051
   6       18.125126
   7       34.814688
   8       36.477635
   9       36.477638
  10       42.244091
  11       43.088183
  12       43.255071
 
  0.4473684E+00  0.0000000E+00  0.4473684E+00  0.1000000E-01
   1        4.289507
   2        8.302851
   3       13.935431
   4       14.451693
   5       14.451701
   6       18.196602
   7       34.513700
   8       36.214470
   9       36.214475
  10       42.286154
  11       42.708803
  12       43.356691
 
  0.4210526E+00  0.0000000E+00  0.4210526E+00  0.1000000E-01
   1        3.508665
   2        9.308021
   3       14.063604
   4       14.561235
   5       14.561243
   6       18.316401
   7       34.081265
   8       35.819130
   9       35.819136
  10       41.422417
  11       43.253216
  12       43.349246
 
  0.3947368E+00  0.0000000E+00  0.3947368E+00  0.1000000E-01
   1        2.753618
   2       10.375206
   3       14.242930
   4       14.714746
   5       14.714754
   6       18.480810
   7       33.589933
   8       35.348561
   9       35.348569
  10       40.534331
  11       42.649034
  12       42.649178
 
  0.3684211E+00  0.0000000E+00  0.3684211E+00  0.1000000E-01
   1        2.036853
   2       11.492976
   3       14.473260
   4       14.912245
   5       14.912253
   6       18.689824
   7       33.048785
   8       34.777750
   9       34.777760
  10       39.645882
  11       41.627686
  12       41.627690
 
  0.3421053E+00  0.0000000E+00  0.3421053E+00  0.1000000E-01
   1        1.362318
   2       12.652861
   3       14.754380
   4       15.153140
   5       15.153148
   6       18.939882
   7       32.502144
   8       34.129418
   9       34.129430
  10       38.737778
  11       40.482420
  12       40.489843
 
  0.3157895E+00  0.0000000E+00  0.3157895E+00  0.1000000E-01
   1        0.734209
   2       13.857925
   3       15.085988
   4       15.438501
   5       15.438508
   6       19.232278
   7       31.971070
   8       33.434980
   9       33.434993
  10       37.879111
  11       39.256626
  12       39.369584
 
  0.2894737E+00  0.0000000E+00  0.2894737E+00  0.1000000E-01
   1        0.153015
   2       15.103262
   3       15.467664
   4       15.767871
   5       15.767878
   6       19.562091
   7       31.465023
   8       32.676739
   9       32.676753
  10       37.044870
  11       37.686356
  12       38.345555
 
  0.2631579E+00  0.0000000E+00  0.2631579E+00  0.1000000E-01
   1       -0.380191
   2       15.898815
   3       16.141196
   4       16.141204
   5       16.386729
   6       19.925636
   7       30.991335
   8       31.852836
   9       31.852850
  10       36.169835
  11       36.238370
  12       37.439804
 
  0.2368421E+00  0.0000000E+00  0.2368421E+00  0.1000000E-01
   1       -0.864841
   2       16.375555
   3       16.555331
   4       16.555338
   5       17.710842
   6       20.320551
   7       30.603037
   8       30.945076
   9       30.945089
  10       34.686082
  11       35.476263
  12       36.666604
 
  0.2105263E+00  0.0000000E+00  0.2105263E+00  0.1000000E-01
   1       -1.299876
   2       16.902228
   3       17.015248
   4       17.015255
   5       19.062323
   6       20.737076
   7       30.014700
   8       30.014713
   9       30.204655
  10       33.279361
  11       34.731856
  12       36.014541
 
  0.1842105E+00  0.0000000E+00  0.1842105E+00  0.1000000E-01
   1       -1.684940
   2       17.474224
   3       17.518090
   4       17.518097
   5       20.435086
   6       21.176469
   7       29.052495
   8       29.052508
   9       29.849568
  10       31.930388
  11       34.025935
  12       35.476116
 
  0.1578947E+00  0.0000000E+00  0.1578947E+00  0.1000000E-01
   1       -2.019604
   2       18.062915
   3       18.062922
   4       18.088392
   5       21.546974
   6       21.904773
   7       28.077077
   8       28.077089
   9       29.539433
  10       30.642527
  11       33.365679
  12       35.037279
 
  0.1315789E+00  0.0000000E+00  0.1315789E+00  0.1000000E-01
   1       -2.303652
   2       18.644424
   3       18.644431
   4       18.738570
   5       22.006177
   6       23.284774
   7       27.095412
   8       27.095424
   9       29.275447
  10       29.416961
  11       32.754720
  12       34.684297
 
  0.1052632E+00  0.0000000E+00  0.1052632E+00  0.1000000E-01
   1       -2.536319
   2       19.265434
   3       19.265440
   4       19.416442
   5       22.412721
   6       24.692386
   7       26.144756
   8       26.144768
   9       28.272329
  10       29.058479
  11       32.227841
  12       34.408107
 
  0.7894737E-01  0.0000000E+00  0.7894737E-01  0.1000000E-01
   1       -2.717561
   2       19.915729
   3       19.915734
   4       20.101981
   5       22.770506
   6       25.230178
   7       25.230190
   8       26.061226
   9       27.223703
  10       28.889158
  11       31.805621
  12       34.200179
 
  0.5263158E-01  0.0000000E+00  0.5263158E-01  0.1000000E-01
   1       -2.847096
   2       20.583509
   3       20.583514
   4       20.765849
   5       23.055985
   6       24.380522
   7       24.380535
   8       26.313080
   9       27.309601
  10       28.767926
  11       31.537748
  12       34.055972
 
  0.2631579E-01  0.0000000E+00  0.2631579E-01  0.1000000E-01
   1       -2.924862
   2       21.194449
   3       21.194452
   4       21.287562
   5       23.243049
   6       23.655082
   7       23.655097
   8       25.635820
   9       28.303638
  10       28.695075
  11       31.484764
  12       33.970503
 
  0.0000000E+00  0.0000000E+00  0.0000000E+00  0.1000000E-01
   1       -2.950799
   2       21.502268
   3       21.502268
   4       21.502270
   5       23.307837
   6       23.307837
   7       23.307862
   8       25.369184
   9       28.670773
  10       28.670773
  11       31.549453
  12       33.942085
 
  0.0000000E+00  0.0000000E+00  0.0000000E+00  0.1000000E-01
   1       -2.950799
   2       21.502268
   3       21.502268
   4       21.502270
   5       23.307837
   6       23.307837
   7       23.307862
   8       25.369184
   9       28.670773
  10       28.670773
  11       31.549452
  12       33.942092
 
  0.2631579E-01  0.2631579E-01  0.2631579E-01  0.1000000E-01
   1       -2.931349
   2       21.033488
   3       21.427630
   4       21.427630
   5       23.413850
   6       23.413850
   7       23.546763
   8       25.585271
   9       28.541482
  10       28.541482
  11       31.464439
  12       34.059091
 
  0.5263158E-01  0.5263158E-01  0.5263158E-01  0.1000000E-01
   1       -2.872992
   2       20.089680
   3       21.243500
   4       21.243500
   5       23.691349
   6       23.691349
   7       23.799174
   8       26.227665
   9       28.196003
  10       28.196003
  11       31.234710
  12       34.386696
 
  0.7894737E-01  0.7894737E-01  0.7894737E-01  0.1000000E-01
   1       -2.775892
   2       19.027181
   3       21.009744
   4       21.009744
   5       23.869736
   6       24.071676
   7       24.071676
   8       27.150636
   9       27.672248
  10       27.672248
  11       30.906750
  12       34.882889
 
  0.1052632E+00  0.1052632E+00  0.1052632E+00  0.1000000E-01
   1       -2.639885
   2       17.932334
   3       20.772195
   4       20.772195
   5       23.839809
   6       24.512078
   7       24.512078
   8       27.142537
   9       27.142537
  10       28.190122
  11       30.514859
  12       35.531318
 
  0.1315789E+00  0.1315789E+00  0.1315789E+00  0.1000000E-01
   1       -2.465209
   2       16.833027
   3       20.545833
   4       20.545833
   5       23.764084
   6       24.961164
   7       24.961164
   8       26.630533
   9       26.630533
  10       29.261608
  11       30.082751
  12       36.316500
 
  0.1578947E+00  0.1578947E+00  0.1578947E+00  0.1000000E-01
   1       -2.251915
   2       15.744514
   3       20.331947
   4       20.331947
   5       23.668404
   6       25.243897
   7       25.243897
   8       26.310984
   9       26.310984
  10       29.603752
  11       30.359877
  12       37.236635
 
  0.1842105E+00  0.1842105E+00  0.1842105E+00  0.1000000E-01
   1       -2.000391
   2       14.670325
   3       20.151209
   4       20.151209
   5       23.571658
   6       25.036131
   7       25.036131
   8       26.546465
   9       26.546465
  10       29.126216
  11       31.413926
  12       38.276111
 
  0.2105263E+00  0.2105263E+00  0.2105263E+00  0.1000000E-01
   1       -1.710745
   2       13.617309
   3       19.998170
   4       19.998170
   5       23.482679
   6       24.571339
   7       24.571339
   8       27.093594
   9       27.093594
  10       28.637828
  11       32.450040
  12       39.425812
 
  0.2368421E+00  0.2368421E+00  0.2368421E+00  0.1000000E-01
   1       -1.383254
   2       12.588412
   3       19.874417
   4       19.874417
   5       23.408752
   6       24.068028
   7       24.068028
   8       27.736249
   9       27.736249
  10       28.149436
  11       33.465455
  12       40.675597
 
  0.2631579E+00  0.2631579E+00  0.2631579E+00  0.1000000E-01
   1       -1.017953
   2       11.585780
   3       19.786018
   4       19.786018
   5       23.355247
   6       23.575610
   7       23.575610
   8       27.668018
   9       28.452288
  10       28.452288
  11       34.467742
  12       41.994876
 
  0.2894737E+00  0.2894737E+00  0.2894737E+00  0.1000000E-01
   1       -0.615567
   2       10.610935
   3       19.722757
   4       19.722757
   5       23.101092
   6       23.101092
   7       23.326107
   8       27.199035
   9       29.181941
  10       29.181941
  11       35.448948
  12       43.322527
 
  0.3157895E+00  0.3157895E+00  0.3157895E+00  0.1000000E-01
   1       -0.176254
   2        9.665119
   3       19.690934
   4       19.690934
   5       22.653062
   6       22.653062
   7       23.324217
   8       26.747209
   9       29.938934
  10       29.938934
  11       36.415064
  12       44.120579
 
  0.3421053E+00  0.3421053E+00  0.3421053E+00  0.1000000E-01
   1        0.299658
   2        8.749360
   3       19.690818
   4       19.690818
   5       22.234267
   6       22.234267
   7       23.351568
   8       26.316544
   9       30.715194
  10       30.715194
  11       37.363592
  12       44.262671
 
  0.3684211E+00  0.3684211E+00  0.3684211E+00  0.1000000E-01
   1        0.811740
   2        7.864498
   3       19.722558
   4       19.722558
   5       21.846316
   6       21.846316
   7       23.409309
   8       25.910611
   9       31.499843
  10       31.499843
  11       38.286939
  12       43.684407
 
  0.3947368E+00  0.3947368E+00  0.3947368E+00  0.1000000E-01
   1        1.359418
   2        7.010967
   3       19.786097
   4       19.786097
   5       21.490274
   6       21.490274
   7       23.497352
   8       25.531740
   9       32.261910
  10       32.261910
  11       39.168944
  12       42.795450
 
  0.4210526E+00  0.4210526E+00  0.4210526E+00  0.1000000E-01
   1        1.942062
   2        6.190642
   3       19.881307
   4       19.881307
   5       21.167142
   6       21.167142
   7       23.615000
   8       25.186324
   9       32.996450
  10       32.996450
  11       39.981600
  12       41.919365
 
  0.4473684E+00  0.4473684E+00  0.4473684E+00  0.1000000E-01
   1        2.558168
   2        5.404623
   3       20.006940
   4       20.006940
   5       20.878516
   6       20.878516
   7       23.756869
   8       24.880443
   9       33.639953
  10       33.639953
  11       40.680265
  12       41.151242
 
  0.4736842E+00  0.4736842E+00  0.4736842E+00  0.1000000E-01
   1        3.204060
   2        4.659938
   3       20.158485
   4       20.158485
   5       20.631868
   6       20.631868
   7       23.907884
   8       24.646004
   9       34.148805
  10       34.148805
  11       40.605091
  12       40.606057
 
  0.5000000E+00  0.5000000E+00  0.5000000E+00  0.1000000E-01
   1        3.738594
   2        4.091385
   3       20.273046
   4       20.273046
   5       20.484523
   6       20.484523
   7       23.985604
   8       24.535220
   9       34.323447
  10       34.323447
  11       40.402411
  12       40.403140
 
  0.5000000E+00  0.5000000E+00  0.5000000E+00  0.1000000E-01
   1        3.738594
   2        4.091385
   3       20.273046
   4       20.273046
   5       20.484523
   6       20.484523
   7       23.985604
   8       24.535220
   9       34.323447
  10       34.323447
  11       40.402411
  12       40.403183
 
  0.5000000E+00  0.4868421E+00  0.5131579E+00  0.1000000E-01
   1        3.750569
   2        4.104009
   3       19.790305
   4       19.846294
   5       20.819003
   6       20.819754
   7       24.168738
   8       24.651488
   9       34.228549
  10       34.290618
  11       40.390208
  12       40.452848
 
  0.5000000E+00  0.4736842E+00  0.5263158E+00  0.1000000E-01
   1        3.786491
   2        4.141853
   3       19.114986
   4       19.259772
   5       21.101388
   6       21.146983
   7       24.669243
   8       24.981544
   9       33.961834
  10       34.192903
  11       40.358565
  12       40.570435
 
  0.5000000E+00  0.4605263E+00  0.5394737E+00  0.1000000E-01
   1        3.846354
   2        4.204398
   3       18.381396
   4       18.623090
   5       21.294450
   6       21.401885
   7       25.387004
   8       25.477839
   9       33.546265
  10       34.032138
  11       40.319196
  12       40.700124
 
  0.5000000E+00  0.4473684E+00  0.5526316E+00  0.1000000E-01
   1        3.930163
   2        4.292396
   3       17.625408
   4       17.959409
   5       21.446310
   6       21.613205
   7       26.090849
   8       26.239825
   9       33.063738
  10       33.815287
  11       40.292554
  12       40.823228
 
  0.5000000E+00  0.4342105E+00  0.5657895E+00  0.1000000E-01
   1        4.037872
   2        4.403475
   3       16.869377
   4       17.283932
   5       21.587148
   6       21.803487
   7       26.775933
   8       27.190862
   9       32.521907
  10       33.520835
  11       40.285967
  12       40.943754
 
  0.5000000E+00  0.4210526E+00  0.5789474E+00  0.1000000E-01
   1        4.169528
   2        4.540855
   3       16.116221
   4       16.605695
   5       21.730303
   6       21.989579
   7       27.495665
   8       28.189852
   9       31.959043
  10       33.224884
  11       40.319268
  12       41.075854
 
  0.5000000E+00  0.4078947E+00  0.5921053E+00  0.1000000E-01
   1        4.325284
   2        4.702751
   3       15.376540
   4       15.932109
   5       21.884506
   6       22.181550
   7       28.218633
   8       29.232225
   9       31.397880
  10       32.923544
  11       40.400966
  12       41.222315
 
  0.5000000E+00  0.3947368E+00  0.6052632E+00  0.1000000E-01
   1        4.504697
   2        4.888127
   3       14.654105
   4       15.267872
   5       22.053704
   6       22.384434
   7       28.899421
   8       30.289168
   9       30.841216
  10       32.648850
  11       40.521040
  12       41.385502
 
  0.5000000E+00  0.3815789E+00  0.6184211E+00  0.1000000E-01
   1        4.707754
   2        5.096629
   3       13.951367
   4       14.616604
   5       22.239666
   6       22.599398
   7       29.462531
   8       30.199043
   9       31.449910
  10       32.475072
  11       40.686774
  12       41.567495
 
  0.5000000E+00  0.3684211E+00  0.6315789E+00  0.1000000E-01
   1        4.934553
   2        5.327550
   3       13.270083
   4       13.981210
   5       22.444331
   6       22.831102
   7       29.639326
   8       29.787453
   9       32.533894
  10       32.581988
  11       40.898053
  12       41.770587
 
  0.5000000E+00  0.3552632E+00  0.6447368E+00  0.1000000E-01
   1        5.185056
   2        5.579751
   3       12.611952
   4       13.364995
   5       22.668183
   6       23.080311
   7       29.089230
   8       29.807185
   9       32.897908
  10       33.747909
  11       41.154861
  12       41.996224
 
  0.5000000E+00  0.3421053E+00  0.6578947E+00  0.1000000E-01
   1        5.458580
   2        5.851631
   3       11.976988
   4       12.769288
   5       22.911253
   6       23.339746
   7       28.550010
   8       29.596683
   9       33.466071
  10       34.926770
  11       41.456572
  12       42.246050
 
  0.5000000E+00  0.3289474E+00  0.6710526E+00  0.1000000E-01
   1        5.754705
   2        6.140785
   3       11.366592
   4       12.197931
   5       23.171722
   6       23.609461
   7       28.020642
   8       29.264107
   9       34.121797
  10       36.115951
  11       41.803226
  12       42.523093
 
  0.5000000E+00  0.3157895E+00  0.6842105E+00  0.1000000E-01
   1        6.072785
   2        6.443455
   3       10.782345
   4       11.655771
   5       23.452954
   6       23.885194
   7       27.517887
   8       28.901903
   9       34.792974
  10       37.305749
  11       42.195913
  12       42.832124
 
  0.5000000E+00  0.3026316E+00  0.6973684E+00  0.1000000E-01
   1        6.411012
   2        6.753157
   3       10.226047
   4       11.149525
   5       23.752249
   6       24.158948
   7       27.036070
   8       28.537247
   9       35.427611
  10       38.476868
  11       42.634130
  12       43.181625
 
  0.5000000E+00  0.2894737E+00  0.7105263E+00  0.1000000E-01
   1        6.765158
   2        7.058192
   3        9.701046
   4       10.691024
   5       24.062785
   6       24.418061
   7       26.570557
   8       28.192902
   9       35.978659
  10       39.609889
  11       43.130643
  12       43.585955
 
  0.5000000E+00  0.2763158E+00  0.7236842E+00  0.1000000E-01
   1        7.126199
   2        7.336268
   3        9.218751
   4       10.303359
   5       24.386399
   6       24.642761
   7       26.146964
   8       27.905690
   9       36.422786
  10       40.603670
  11       43.639158
  12       44.065340
 
  0.5000000E+00  0.2631579E+00  0.7368421E+00  0.1000000E-01
   1        7.458722
   2        7.545844
   3        8.813331
   4       10.027965
   5       24.692787
   6       24.800373
   7       25.779084
   8       27.709368
   9       36.705094
  10       41.342788
  11       44.113423
  12       44.499397
 
  0.5000000E+00  0.2500000E+00  0.7500000E+00  0.1000000E-01
   1        7.627136
   2        7.627144
   3        8.620607
   4        9.924727
   5       24.858303
   6       24.858309
   7       25.593043
   8       27.638304
   9       36.802972
  10       41.629750
  11       44.335737
  12       44.354163
 
  0.5000000E+00  0.2500000E+00  0.7500000E+00  0.1000000E-01
   1        7.627136
   2        7.627144
   3        8.620607
   4        9.924727
   5       24.858303
   6       24.858309
   7       25.593043
   8       27.638304
   9       36.802972
  10       41.629750
  11       44.337190
  12       44.360421
 
  0.4934211E+00  0.2565789E+00  0.7500000E+00  0.1000000E-01
   1        7.517329
   2        7.704494
   3        8.636656
   4        9.952661
   5       24.495660
   6       25.195304
   7       25.579016
   8       27.685337
   9       36.789770
  10       41.590992
  11       44.279942
  12       44.385650
 
  0.4868421E+00  0.2631579E+00  0.7500000E+00  0.1000000E-01
   1        7.413475
   2        7.719928
   3        8.667156
   4       10.045140
   5       24.091544
   6       25.537283
   7       25.538745
   8       27.809757
   9       36.748647
  10       41.475602
  11       44.227073
  12       44.413279
 
  0.4802632E+00  0.2697368E+00  0.7500000E+00  0.1000000E-01
   1        7.315577
   2        7.694853
   3        8.686015
   4       10.206820
   5       23.660705
   6       25.481458
   7       25.884115
   8       27.987504
   9       36.677611
  10       41.292224
  11       44.171545
  12       44.226700
 
  0.4736842E+00  0.2763158E+00  0.7500000E+00  0.1000000E-01
   1        7.223629
   2        7.648191
   3        8.682463
   4       10.429497
   5       23.212694
   6       25.415873
   7       26.235654
   8       28.200090
   9       36.575178
  10       41.055342
  11       43.959160
  12       44.110300
 
  0.4671053E+00  0.2828947E+00  0.7500000E+00  0.1000000E-01
   1        7.137630
   2        7.591564
   3        8.659286
   4       10.698682
   5       22.753989
   6       25.347676
   7       26.591729
   8       28.434986
   9       36.440537
  10       40.780124
  11       43.698388
  12       44.052332
 
  0.4605263E+00  0.2894737E+00  0.7500000E+00  0.1000000E-01
   1        7.057575
   2        7.531369
   3        8.622932
   4       11.000660
   5       22.288234
   6       25.280148
   7       26.952141
   8       28.681921
   9       36.273670
  10       40.459095
  11       43.454421
  12       43.994319
 
  0.4539474E+00  0.2960526E+00  0.7500000E+00  0.1000000E-01
   1        6.983854
   2        7.471510
   3        8.580158
   4       11.327512
   5       21.824299
   6       25.215903
   7       27.337445
   8       28.956774
   9       36.082838
  10       40.150518
  11       43.232848
  12       43.941408
 
  0.4473684E+00  0.3026316E+00  0.7500000E+00  0.1000000E-01
   1        6.915627
   2        7.413390
   3        8.534172
   4       11.670864
   5       21.355316
   6       25.154852
   7       27.706266
   8       29.217753
   9       35.854201
  10       39.828120
  11       43.034351
  12       43.886295
 
  0.4407895E+00  0.3092105E+00  0.7500000E+00  0.1000000E-01
   1        6.853311
   2        7.358388
   3        8.487836
   4       12.027109
   5       20.887219
   6       25.096771
   7       28.075184
   8       29.477821
   9       35.572015
  10       39.505313
  11       42.859887
  12       43.821176
 
  0.4342105E+00  0.3157895E+00  0.7500000E+00  0.1000000E-01
   1        6.796975
   2        7.307632
   3        8.443339
   4       12.393517
   5       20.421528
   6       25.044984
   7       28.450306
   8       29.735647
   9       35.292276
  10       39.188094
  11       42.708577
  12       43.772836
 
  0.4276316E+00  0.3223684E+00  0.7500000E+00  0.1000000E-01
   1        6.746867
   2        7.261684
   3        8.402038
   4       12.768137
   5       19.959770
   6       25.001315
   7       28.838399
   8       30.005753
   9       35.028606
  10       38.882498
  11       42.593079
  12       43.730306
 
  0.4210526E+00  0.3289474E+00  0.7500000E+00  0.1000000E-01
   1        6.702408
   2        7.220452
   3        8.364084
   4       13.147969
   5       19.503182
   6       24.959848
   7       29.218000
   8       30.246537
   9       34.706657
  10       38.590654
  11       42.483826
  12       43.690531
 
  0.4144737E+00  0.3355263E+00  0.7500000E+00  0.1000000E-01
   1        6.663882
   2        7.184388
   3        8.330388
   4       13.531257
   5       19.053760
   6       24.923759
   7       29.598295
   8       30.472371
   9       34.370755
  10       38.319297
  11       42.392873
  12       43.655567
 
  0.4078947E+00  0.3421053E+00  0.7500000E+00  0.1000000E-01
   1        6.631289
   2        7.153659
   3        8.301357
   4       13.915059
   5       18.614226
   6       24.893131
   7       29.977650
   8       30.678323
   9       34.024855
  10       38.073983
  11       42.318682
  12       43.625506
 
  0.4013158E+00  0.3486842E+00  0.7500000E+00  0.1000000E-01
   1        6.604625
   2        7.128384
   3        8.277285
   4       14.294680
   5       18.189129
   6       24.868019
   7       30.353287
   8       30.858872
   9       33.673745
  10       37.860702
  11       42.259901
  12       43.600807
 
  0.3947368E+00  0.3552632E+00  0.7500000E+00  0.1000000E-01
   1        6.583891
   2        7.108649
   3        8.258377
   4       14.661352
   5       17.787139
   6       24.848461
   7       30.719784
   8       31.008087
   9       33.324498
  10       37.685730
  11       42.215409
  12       43.581455
 
  0.3881579E+00  0.3618421E+00  0.7500000E+00  0.1000000E-01
   1        6.568883
   2        7.094293
   3        8.244630
   4       14.996378
   5       17.426062
   6       24.833431
   7       31.064523
   8       31.116466
   9       32.971491
  10       37.555185
  11       42.172335
  12       43.563145
 
  0.3815789E+00  0.3684211E+00  0.7500000E+00  0.1000000E-01
   1        6.559993
   2        7.085802
   3        8.236434
   4       15.257280
   5       17.150068
   6       24.825014
   7       31.186033
   8       31.351416
   9       32.691434
  10       37.474384
  11       42.153617
  12       43.554835
 
  0.3750000E+00  0.3750000E+00  0.7500000E+00  0.1000000E-01
   1        6.557029
   2        7.082969
   3        8.233696
   4       15.363230
   5       17.039090
   6       24.822207
   7       31.209651
   8       31.479496
   9       32.565571
  10       37.447010
  11       42.147420
  12       43.552067
 
  0.3750000E+00  0.3750000E+00  0.7500000E+00  0.1000000E-01
   1        6.557029
   2        7.082969
   3        8.233696
   4       15.363230
   5       17.039090
   6       24.822207
   7       31.209651
   8       31.479496
   9       32.565571
  10       37.447010
  11       42.147420
  12       43.552052
 
  0.3552632E+00  0.3552632E+00  0.7105263E+00  0.1000000E-01
   1        6.155152
   2        6.921717
   3        8.545939
   4       15.704524
   5       17.447188
   6       26.308821
   7       30.438928
   8       30.511789
   9       31.754532
  10       36.519443
  11       41.316252
  12       42.731044
 
  0.3355263E+00  0.3355263E+00  0.6710526E+00  0.1000000E-01
   1        5.218678
   2        7.340120
   3        8.965470
   4       16.096186
   5       17.900560
   6       27.768743
   7       29.578883
   8       29.694179
   9       30.968394
  10       35.668927
  11       40.487125
  12       41.934740
 
  0.3157895E+00  0.3157895E+00  0.6315789E+00  0.1000000E-01
   1        4.317648
   2        7.812251
   3        9.449351
   4       16.535411
   5       18.401788
   6       28.675325
   7       28.965045
   8       29.130220
   9       30.208517
  10       34.945639
  11       39.680202
  12       41.209612
 
  0.2960526E+00  0.2960526E+00  0.5921053E+00  0.1000000E-01
   1        3.461394
   2        8.338326
   3        9.988910
   4       17.027263
   5       18.947654
   6       27.828244
   7       28.292713
   8       29.491115
   9       30.206227
  10       34.470628
  11       38.906550
  12       40.621318
 
  0.2763158E+00  0.2763158E+00  0.5526316E+00  0.1000000E-01
   1        2.652993
   2        8.918596
   3       10.580407
   4       17.570393
   5       19.539333
   6       27.029300
   7       27.665382
   8       28.814325
   9       30.730332
  10       34.426380
  11       38.171189
  12       40.284250
 
  0.2565789E+00  0.2565789E+00  0.5131579E+00  0.1000000E-01
   1        1.895487
   2        9.552820
   3       11.221331
   4       18.163022
   5       20.173403
   6       26.280400
   7       27.075115
   8       28.178490
   9       30.620136
  10       34.669209
  11       37.473831
  12       40.393094
 
  0.2368421E+00  0.2368421E+00  0.4736842E+00  0.1000000E-01
   1        1.189328
   2       10.241194
   3       11.909090
   4       18.804596
   5       20.848324
   6       25.583275
   7       26.527394
   8       27.586133
   9       30.163345
  10       34.754854
  11       36.812863
  12       41.095738
 
  0.2171053E+00  0.2171053E+00  0.4342105E+00  0.1000000E-01
   1        0.536675
   2       10.983181
   3       12.640759
   4       19.492067
   5       21.558779
   6       24.923939
   7       26.020933
   8       27.035050
   9       29.584739
  10       34.558075
  11       36.181391
  12       42.392337
 
  0.1973684E+00  0.1973684E+00  0.3947368E+00  0.1000000E-01
   1       -0.062073
   2       11.779551
   3       13.414248
   4       20.230746
   5       22.305310
   6       24.333666
   7       25.567221
   8       26.532659
   9       28.984035
  10       34.168537
  11       35.564272
  12       40.811615
 
  0.1776316E+00  0.1776316E+00  0.3552632E+00  0.1000000E-01
   1       -0.606099
   2       12.629624
   3       14.225857
   4       21.014506
   5       23.080884
   6       23.798029
   7       25.161694
   8       26.075760
   9       28.385790
  10       33.695552
  11       34.928518
  12       39.062764
 
  0.1578947E+00  0.1578947E+00  0.3157895E+00  0.1000000E-01
   1       -1.094797
   2       13.532859
   3       15.071239
   4       21.837134
   5       23.317607
   6       23.878835
   7       24.809133
   8       25.664402
   9       27.794988
  10       33.187720
  11       34.202995
  12       37.507075
 
  0.1381579E+00  0.1381579E+00  0.2763158E+00  0.1000000E-01
   1       -1.527468
   2       14.488316
   3       15.945332
   4       22.679405
   5       22.892859
   6       24.526263
   7       24.689745
   8       25.298210
   9       27.217100
  10       32.687603
  11       33.268864
  12       36.268581
 
  0.1184211E+00  0.1184211E+00  0.2368421E+00  0.1000000E-01
   1       -1.903686
   2       15.491252
   3       16.841158
   4       22.524150
   5       23.439176
   6       24.410973
   7       24.975346
   8       25.492498
   9       26.653589
  10       32.048176
  11       32.216980
  12       35.416996
 
  0.9868421E-01  0.9868421E-01  0.1973684E+00  0.1000000E-01
   1       -2.222751
   2       16.545082
   3       17.751856
   4       22.211767
   5       23.694372
   6       24.696250