       N       E                     dE             d eps       ncg     rms          rms(c)
DAV:   1    -0.216115733868E+01   -0.21612E+01   -0.48951E+02  2796   0.616E+01
DAV:   2    -0.432565892939E+01   -0.21645E+01   -0.21084E+01  3084   0.188E+01
DAV:   3    -0.434884389270E+01   -0.23185E-01   -0.23172E-01  2952   0.149E+00
DAV:   4    -0.434888262346E+01   -0.38731E-04   -0.38729E-04  2844   0.701E-02
DAV:   5    -0.434888279139E+01   -0.16793E-06   -0.16799E-06  2964   0.405E-03
DAV:   6    -0.434888279227E+01   -0.88508E-09   -0.90225E-09  2176   0.305E-04
   1 F= -.43488828E+01 E0= -.43489774E+01  d E =0.283960E-03
