 vasp.5.3.3 18Dez12 (build Feb 04 2014 23:58:42) complex                        
  
 executed on             LinuxIFC date 2019.04.27  10:24:30
 running on    1 total cores
 distrk:  each k-point on    1 cores,    1 groups
 distr:  one band on NCORES_PER_BAND=   1 cores,    1 groups


--------------------------------------------------------------------------------------------------------


 INCAR:
 POTCAR:   PAW_PBE Al 04Jan2001                   
 POTCAR:   PAW_PBE Al 04Jan2001                   
   VRHFIN =Al: s2p1                                                             
   LEXCH  = PE                                                                  
   EATOM  =    53.5387 eV,    3.9350 Ry                                         
                                                                                
   TITEL  = PAW_PBE Al 04Jan2001                                                
   LULTRA =        F    use ultrasoft PP ?                                      
   IUNSCR =        1    unscreen: 0-lin 1-nonlin 2-no                           
   RPACOR =    1.500    partial core radius                                     
   POMASS =   26.982; ZVAL   =    3.000    mass and valenz                      
   RCORE  =    1.900    outmost cutoff radius                                   
   RWIGS  =    2.650; RWIGS  =    1.402    wigner-seitz radius (au A)           
   ENMAX  =  240.300; ENMIN  =  180.225 eV                                      
   ICORE  =        2    local potential                                         
   LCOR   =        T    correct aug charges                                     
   LPAW   =        T    paw PP                                                  
   EAUG   =  291.052                                                            
   DEXC   =    -.041                                                            
   RMAX   =    2.974    core radius for proj-oper                               
   RAUG   =    1.300    factor for augmentation sphere                          
   RDEP   =    1.966    radius for radial grids                                 
   QCUT   =   -4.203; QGAM   =    8.405    optimization parameters              
                                                                                
   Description                                                                  
     l     E      TYP  RCUT    TYP  RCUT                                        
     0   .000     23  1.900                                                     
     0   .000     23  1.900                                                     
     1   .000     23  1.900                                                     
     1  1.000     23  1.900                                                     
     2   .000      7  1.900                                                     
  local pseudopotential read in
  partial core-charges read in
  atomic valenz-charges read in
  non local Contribution for L=           0  read in
    real space projection operators read in
  non local Contribution for L=           0  read in
    real space projection operators read in
  non local Contribution for L=           1  read in
    real space projection operators read in
  non local Contribution for L=           1  read in
    real space projection operators read in
    PAW grid and wavefunctions read in
 
   number of l-projection  operators is LMAX  =           4
   number of lm-projection operators is LMMAX =           8
 
 PAW_PBE Al 04Jan2001                   :
 energy of atom  1       EATOM=  -53.5387
 kinetic energy error for atom=    0.0025 (will be added to EATOM!!)
 
 
 POSCAR: Al                                      
  positions in direct lattice
  No initial velocities read in
 exchange correlation table for  LEXCH =        8
   RHO(1)=    0.500       N(1)  =     2000
   RHO(2)=  100.500       N(2)  =     4000

 VTST: version 3.0d, (01/09/14)

 CHAIN: initializing optimizer
 
 OPT: Using VASP Conjugate-Gradient optimizer
 CHAIN: Read ICHAIN            0
 
 POSCAR: Al                                      
  positions in direct lattice
  No initial velocities read in
 


--------------------------------------------------------------------------------------------------------


 ion  position               nearest neighbor table
   1  0.000  0.000  0.000-
 
  LATTYP: Found a face centered cubic cell.
 ALAT       =     3.9750000000
  
  Lattice vectors:
  
 A1 = (   0.0000000000,   1.9875000000,   1.9875000000)
 A2 = (   1.9875000000,   0.0000000000,   1.9875000000)
 A3 = (   1.9875000000,   1.9875000000,   0.0000000000)


Analysis of symmetry for initial positions (statically):
=====================================================================
 Subroutine PRICEL returns:
 Original cell was already a primitive cell.
 

 Routine SETGRP: Setting up the symmetry group for a 
 face centered cubic supercell.


 Subroutine GETGRP returns: Found 48 space group operations
 (whereof 48 operations were pure point group operations)
 out of a pool of 48 trial point group operations.


The static configuration has the point symmetry O_h .


Analysis of symmetry for dynamics (positions and initial velocities):
=====================================================================
 Subroutine PRICEL returns:
 Original cell was already a primitive cell.
 

 Routine SETGRP: Setting up the symmetry group for a 
 face centered cubic supercell.


 Subroutine GETGRP returns: Found 48 space group operations
 (whereof 48 operations were pure point group operations)
 out of a pool of 48 trial point group operations.


The dynamic configuration has the point symmetry O_h .


 irot  :   1
 --------------------------------------------------------------------
 isymop:   1   0   0
           0   1   0
           0   0   1

 gtrans:     0.0000000     0.0000000     0.0000000

 ptrans:     0.0000000     0.0000000     0.0000000
 rotmap:
 (   1->   1) 


 irot  :   2
 --------------------------------------------------------------------
 isymop:  -1   0   0
           0  -1   0
           0   0  -1

 gtrans:     0.0000000     0.0000000     0.0000000

 ptrans:     0.0000000     0.0000000     0.0000000
 rotmap:
 (   1->   1) 


 irot  :   3
 --------------------------------------------------------------------
 isymop:   0   0   1
           1   0   0
           0   1   0

 gtrans:     0.0000000     0.0000000     0.0000000

 ptrans:     0.0000000     0.0000000     0.0000000
 rotmap:
 (   1->   1) 


 irot  :   4
 --------------------------------------------------------------------
 isymop:   0   0  -1
          -1   0   0
           0  -1   0

 gtrans:     0.0000000     0.0000000     0.0000000

 ptrans:     0.0000000     0.0000000     0.0000000
 rotmap:
 (   1->   1) 


 irot  :   5
 --------------------------------------------------------------------
 isymop:   0   1   0
           0   0   1
           1   0   0

 gtrans:     0.0000000     0.0000000     0.0000000

 ptrans:     0.0000000     0.0000000     0.0000000
 rotmap:
 (   1->   1) 


 irot  :   6
 --------------------------------------------------------------------
 isymop:   0  -1   0
           0   0  -1
          -1   0   0

 gtrans:     0.0000000     0.0000000     0.0000000

 ptrans:     0.0000000     0.0000000     0.0000000
 rotmap:
 (   1->   1) 


 irot  :   7
 --------------------------------------------------------------------
 isymop:   1   1   1
           0   0  -1
          -1   0   0

 gtrans:     0.0000000     0.0000000     0.0000000

 ptrans:     0.0000000     0.0000000     0.0000000
 rotmap:
 (   1->   1) 


 irot  :   8
 --------------------------------------------------------------------
 isymop:  -1  -1  -1
           0   0   1
           1   0   0

 gtrans:     0.0000000     0.0000000     0.0000000

 ptrans:     0.0000000     0.0000000     0.0000000
 rotmap:
 (   1->   1) 


 irot  :   9
 --------------------------------------------------------------------
 isymop:   1   1   1
           0  -1   0
           0   0  -1

 gtrans:     0.0000000     0.0000000     0.0000000

 ptrans:     0.0000000     0.0000000     0.0000000
 rotmap:
 (   1->   1) 


 irot  :  10
 --------------------------------------------------------------------
 isymop:  -1  -1  -1
           0   1   0
           0   0   1

 gtrans:     0.0000000     0.0000000     0.0000000

 ptrans:     0.0000000     0.0000000     0.0000000
 rotmap:
 (   1->   1) 


 irot  :  11
 --------------------------------------------------------------------
 isymop:   1   1   1
          -1   0   0
           0  -1   0

 gtrans:     0.0000000     0.0000000     0.0000000

 ptrans:     0.0000000     0.0000000     0.0000000
 rotmap:
 (   1->   1) 


 irot  :  12
 --------------------------------------------------------------------
 isymop:  -1  -1  -1
           1   0   0
           0   1   0

 gtrans:     0.0000000     0.0000000     0.0000000

 ptrans:     0.0000000     0.0000000     0.0000000
 rotmap:
 (   1->   1) 


 irot  :  13
 --------------------------------------------------------------------
 isymop:   0   1   0
           1   0   0
          -1  -1  -1

 gtrans:     0.0000000     0.0000000     0.0000000

 ptrans:     0.0000000     0.0000000     0.0000000
 rotmap:
 (   1->   1) 


 irot  :  14
 --------------------------------------------------------------------
 isymop:   0  -1   0
          -1   0   0
           1   1   1

 gtrans:     0.0000000     0.0000000     0.0000000

 ptrans:     0.0000000     0.0000000     0.0000000
 rotmap:
 (   1->   1) 


 irot  :  15
 --------------------------------------------------------------------
 isymop:   1   0   0
           0   0   1
          -1  -1  -1

 gtrans:     0.0000000     0.0000000     0.0000000

 ptrans:     0.0000000     0.0000000     0.0000000
 rotmap:
 (   1->   1) 


 irot  :  16
 --------------------------------------------------------------------
 isymop:  -1   0   0
           0   0  -1
           1   1   1

 gtrans:     0.0000000     0.0000000     0.0000000

 ptrans:     0.0000000     0.0000000     0.0000000
 rotmap:
 (   1->   1) 


 irot  :  17
 --------------------------------------------------------------------
 isymop:   0   0   1
           0   1   0
          -1  -1  -1

 gtrans:     0.0000000     0.0000000     0.0000000

 ptrans:     0.0000000     0.0000000     0.0000000
 rotmap:
 (   1->   1) 


 irot  :  18
 --------------------------------------------------------------------
 isymop:   0   0  -1
           0  -1   0
           1   1   1

 gtrans:     0.0000000     0.0000000     0.0000000

 ptrans:     0.0000000     0.0000000     0.0000000
 rotmap:
 (   1->   1) 


 irot  :  19
 --------------------------------------------------------------------
 isymop:   0   0  -1
           1   1   1
           0  -1   0

 gtrans:     0.0000000     0.0000000     0.0000000

 ptrans:     0.0000000     0.0000000     0.0000000
 rotmap:
 (   1->   1) 


 irot  :  20
 --------------------------------------------------------------------
 isymop:   0   0   1
          -1  -1  -1
           0   1   0

 gtrans:     0.0000000     0.0000000     0.0000000

 ptrans:     0.0000000     0.0000000     0.0000000
 rotmap:
 (   1->   1) 


 irot  :  21
 --------------------------------------------------------------------
 isymop:   0  -1   0
           1   1   1
          -1   0   0

 gtrans:     0.0000000     0.0000000     0.0000000

 ptrans:     0.0000000     0.0000000     0.0000000
 rotmap:
 (   1->   1) 


 irot  :  22
 --------------------------------------------------------------------
 isymop:   0   1   0
          -1  -1  -1
           1   0   0

 gtrans:     0.0000000     0.0000000     0.0000000

 ptrans:     0.0000000     0.0000000     0.0000000
 rotmap:
 (   1->   1) 


 irot  :  23
 --------------------------------------------------------------------
 isymop:  -1   0   0
           1   1   1
           0   0  -1

 gtrans:     0.0000000     0.0000000     0.0000000

 ptrans:     0.0000000     0.0000000     0.0000000
 rotmap:
 (   1->   1) 


 irot  :  24
 --------------------------------------------------------------------
 isymop:   1   0   0
          -1  -1  -1
           0   0   1

 gtrans:     0.0000000     0.0000000     0.0000000

 ptrans:     0.0000000     0.0000000     0.0000000
 rotmap:
 (   1->   1) 


 irot  :  25
 --------------------------------------------------------------------
 isymop:  -1  -1  -1
           0   1   0
           1   0   0

 gtrans:     0.0000000     0.0000000     0.0000000

 ptrans:     0.0000000     0.0000000     0.0000000
 rotmap:
 (   1->   1) 


 irot  :  26
 --------------------------------------------------------------------
 isymop:   1   1   1
           0  -1   0
          -1   0   0

 gtrans:     0.0000000     0.0000000     0.0000000

 ptrans:     0.0000000     0.0000000     0.0000000
 rotmap:
 (   1->   1) 


 irot  :  27
 --------------------------------------------------------------------
 isymop:  -1  -1  -1
           1   0   0
           0   0   1

 gtrans:     0.0000000     0.0000000     0.0000000

 ptrans:     0.0000000     0.0000000     0.0000000
 rotmap:
 (   1->   1) 


 irot  :  28
 --------------------------------------------------------------------
 isymop:   1   1   1
          -1   0   0
           0   0  -1

 gtrans:     0.0000000     0.0000000     0.0000000

 ptrans:     0.0000000     0.0000000     0.0000000
 rotmap:
 (   1->   1) 


 irot  :  29
 --------------------------------------------------------------------
 isymop:  -1  -1  -1
           0   0   1
           0   1   0

 gtrans:     0.0000000     0.0000000     0.0000000

 ptrans:     0.0000000     0.0000000     0.0000000
 rotmap:
 (   1->   1) 


 irot  :  30
 --------------------------------------------------------------------
 isymop:   1   1   1
           0   0  -1
           0  -1   0

 gtrans:     0.0000000     0.0000000     0.0000000

 ptrans:     0.0000000     0.0000000     0.0000000
 rotmap:
 (   1->   1) 


 irot  :  31
 --------------------------------------------------------------------
 isymop:   0  -1   0
           0   0  -1
           1   1   1

 gtrans:     0.0000000     0.0000000     0.0000000

 ptrans:     0.0000000     0.0000000     0.0000000
 rotmap:
 (   1->   1) 


 irot  :  32
 --------------------------------------------------------------------
 isymop:   0   1   0
           0   0   1
          -1  -1  -1

 gtrans:     0.0000000     0.0000000     0.0000000

 ptrans:     0.0000000     0.0000000     0.0000000
 rotmap:
 (   1->   1) 


 irot  :  33
 --------------------------------------------------------------------
 isymop:  -1   0   0
           0  -1   0
           1   1   1

 gtrans:     0.0000000     0.0000000     0.0000000

 ptrans:     0.0000000     0.0000000     0.0000000
 rotmap:
 (   1->   1) 


 irot  :  34
 --------------------------------------------------------------------
 isymop:   1   0   0
           0   1   0
          -1  -1  -1

 gtrans:     0.0000000     0.0000000     0.0000000

 ptrans:     0.0000000     0.0000000     0.0000000
 rotmap:
 (   1->   1) 


 irot  :  35
 --------------------------------------------------------------------
 isymop:   0   0  -1
          -1   0   0
           1   1   1

 gtrans:     0.0000000     0.0000000     0.0000000

 ptrans:     0.0000000     0.0000000     0.0000000
 rotmap:
 (   1->   1) 


 irot  :  36
 --------------------------------------------------------------------
 isymop:   0   0   1
           1   0   0
          -1  -1  -1

 gtrans:     0.0000000     0.0000000     0.0000000

 ptrans:     0.0000000     0.0000000     0.0000000
 rotmap:
 (   1->   1) 


 irot  :  37
 --------------------------------------------------------------------
 isymop:   1   0   0
          -1  -1  -1
           0   1   0

 gtrans:     0.0000000     0.0000000     0.0000000

 ptrans:     0.0000000     0.0000000     0.0000000
 rotmap:
 (   1->   1) 


 irot  :  38
 --------------------------------------------------------------------
 isymop:  -1   0   0
           1   1   1
           0  -1   0

 gtrans:     0.0000000     0.0000000     0.0000000

 ptrans:     0.0000000     0.0000000     0.0000000
 rotmap:
 (   1->   1) 


 irot  :  39
 --------------------------------------------------------------------
 isymop:   0   0   1
          -1  -1  -1
           1   0   0

 gtrans:     0.0000000     0.0000000     0.0000000

 ptrans:     0.0000000     0.0000000     0.0000000
 rotmap:
 (   1->   1) 


 irot  :  40
 --------------------------------------------------------------------
 isymop:   0   0  -1
           1   1   1
          -1   0   0

 gtrans:     0.0000000     0.0000000     0.0000000

 ptrans:     0.0000000     0.0000000     0.0000000
 rotmap:
 (   1->   1) 


 irot  :  41
 --------------------------------------------------------------------
 isymop:   0   1   0
          -1  -1  -1
           0   0   1

 gtrans:     0.0000000     0.0000000     0.0000000

 ptrans:     0.0000000     0.0000000     0.0000000
 rotmap:
 (   1->   1) 


 irot  :  42
 --------------------------------------------------------------------
 isymop:   0  -1   0
           1   1   1
           0   0  -1

 gtrans:     0.0000000     0.0000000     0.0000000

 ptrans:     0.0000000     0.0000000     0.0000000
 rotmap:
 (   1->   1) 


 irot  :  43
 --------------------------------------------------------------------
 isymop:  -1   0   0
           0   0  -1
           0  -1   0

 gtrans:     0.0000000     0.0000000     0.0000000

 ptrans:     0.0000000     0.0000000     0.0000000
 rotmap:
 (   1->   1) 


 irot  :  44
 --------------------------------------------------------------------
 isymop:   1   0   0
           0   0   1
           0   1   0

 gtrans:     0.0000000     0.0000000     0.0000000

 ptrans:     0.0000000     0.0000000     0.0000000
 rotmap:
 (   1->   1) 


 irot  :  45
 --------------------------------------------------------------------
 isymop:   0  -1   0
          -1   0   0
           0   0  -1

 gtrans:     0.0000000     0.0000000     0.0000000

 ptrans:     0.0000000     0.0000000     0.0000000
 rotmap:
 (   1->   1) 


 irot  :  46
 --------------------------------------------------------------------
 isymop:   0   1   0
           1   0   0
           0   0   1

 gtrans:     0.0000000     0.0000000     0.0000000

 ptrans:     0.0000000     0.0000000     0.0000000
 rotmap:
 (   1->   1) 


 irot  :  47
 --------------------------------------------------------------------
 isymop:   0   0  -1
           0  -1   0
          -1   0   0

 gtrans:     0.0000000     0.0000000     0.0000000

 ptrans:     0.0000000     0.0000000     0.0000000
 rotmap:
 (   1->   1) 


 irot  :  48
 --------------------------------------------------------------------
 isymop:   0   0   1
           0   1   0
           1   0   0

 gtrans:     0.0000000     0.0000000     0.0000000

 ptrans:     0.0000000     0.0000000     0.0000000
 rotmap:
 (   1->   1) 
 
 
 KPOINTS: k-points along high symmetry lines      
  interpolating k-points between supplied coordinates
  k-points in reciprocal lattice
Space group operators:
 irot       det(A)        alpha          n_x          n_y          n_z        tau_x        tau_y        tau_z
    1     1.000000     0.000001     1.000000     0.000000     0.000000     0.000000     0.000000     0.000000
    2    -1.000000     0.000001     1.000000     0.000000     0.000000     0.000000     0.000000     0.000000
    3     1.000000   120.000000    -0.577350    -0.577350    -0.577350     0.000000     0.000000     0.000000
    4    -1.000000   120.000000    -0.577350    -0.577350    -0.577350     0.000000     0.000000     0.000000
    5     1.000000   120.000000     0.577350     0.577350     0.577350     0.000000     0.000000     0.000000
    6    -1.000000   120.000000     0.577350     0.577350     0.577350     0.000000     0.000000     0.000000
    7     1.000000    90.000000     0.000000     0.000000    -1.000000     0.000000     0.000000     0.000000
    8    -1.000000    90.000000     0.000000     0.000000    -1.000000     0.000000     0.000000     0.000000
    9     1.000000   180.000000     0.000000     0.707107     0.707107     0.000000     0.000000     0.000000
   10    -1.000000   180.000000     0.000000     0.707107     0.707107     0.000000     0.000000     0.000000
   11     1.000000    90.000000     0.000000     1.000000     0.000000     0.000000     0.000000     0.000000
   12    -1.000000    90.000000     0.000000     1.000000     0.000000     0.000000     0.000000     0.000000
   13     1.000000   180.000000     0.000000     0.000000     1.000000     0.000000     0.000000     0.000000
   14    -1.000000   180.000000     0.000000     0.000000     1.000000     0.000000     0.000000     0.000000
   15     1.000000   120.000000    -0.577350     0.577350     0.577350     0.000000     0.000000     0.000000
   16    -1.000000   120.000000    -0.577350     0.577350     0.577350     0.000000     0.000000     0.000000
   17     1.000000   120.000000    -0.577350     0.577350    -0.577350     0.000000     0.000000     0.000000
   18    -1.000000   120.000000    -0.577350     0.577350    -0.577350     0.000000     0.000000     0.000000
   19     1.000000    90.000000     0.000000     0.000000     1.000000     0.000000     0.000000     0.000000
   20    -1.000000    90.000000     0.000000     0.000000     1.000000     0.000000     0.000000     0.000000
   21     1.000000    90.000000    -1.000000     0.000000     0.000000     0.000000     0.000000     0.000000
   22    -1.000000    90.000000    -1.000000     0.000000     0.000000     0.000000     0.000000     0.000000
   23     1.000000   180.000000     0.707107     0.000000     0.707107     0.000000     0.000000     0.000000
   24    -1.000000   180.000000     0.707107     0.000000     0.707107     0.000000     0.000000     0.000000
   25     1.000000   120.000000     0.577350    -0.577350     0.577350     0.000000     0.000000     0.000000
   26    -1.000000   120.000000     0.577350    -0.577350     0.577350     0.000000     0.000000     0.000000
   27     1.000000   120.000000    -0.577350    -0.577350     0.577350     0.000000     0.000000     0.000000
   28    -1.000000   120.000000    -0.577350    -0.577350     0.577350     0.000000     0.000000     0.000000
   29     1.000000   180.000000     1.000000     0.000000     0.000000     0.000000     0.000000     0.000000
   30    -1.000000   180.000000     1.000000     0.000000     0.000000     0.000000     0.000000     0.000000
   31     1.000000    90.000000     0.000000    -1.000000     0.000000     0.000000     0.000000     0.000000
   32    -1.000000    90.000000     0.000000    -1.000000     0.000000     0.000000     0.000000     0.000000
   33     1.000000   180.000000     0.707107     0.707107     0.000000     0.000000     0.000000     0.000000
   34    -1.000000   180.000000     0.707107     0.707107     0.000000     0.000000     0.000000     0.000000
   35     1.000000    90.000000     1.000000     0.000000     0.000000     0.000000     0.000000     0.000000
   36    -1.000000    90.000000     1.000000     0.000000     0.000000     0.000000     0.000000     0.000000
   37     1.000000   120.000000     0.577350    -0.577350    -0.577350     0.000000     0.000000     0.000000
   38    -1.000000   120.000000     0.577350    -0.577350    -0.577350     0.000000     0.000000     0.000000
   39     1.000000   180.000000     0.000000     1.000000     0.000000     0.000000     0.000000     0.000000
   40    -1.000000   180.000000     0.000000     1.000000     0.000000     0.000000     0.000000     0.000000
   41     1.000000   120.000000     0.577350     0.577350    -0.577350     0.000000     0.000000     0.000000
   42    -1.000000   120.000000     0.577350     0.577350    -0.577350     0.000000     0.000000     0.000000
   43     1.000000   180.000000     0.000000    -0.707107     0.707107     0.000000     0.000000     0.000000
   44    -1.000000   180.000000     0.000000    -0.707107     0.707107     0.000000     0.000000     0.000000
   45     1.000000   180.000000     0.707107    -0.707107     0.000000     0.000000     0.000000     0.000000
   46    -1.000000   180.000000     0.707107    -0.707107     0.000000     0.000000     0.000000     0.000000
   47     1.000000   180.000000     0.707107     0.000000    -0.707107     0.000000     0.000000     0.000000
   48    -1.000000   180.000000     0.707107     0.000000    -0.707107     0.000000     0.000000     0.000000


--------------------------------------------------------------------------------------------------------




 Dimension of arrays:
   k-points           NKPTS =    100   k-points in BZ     NKDIM =    100   number of bands    NBANDS=     12
   number of dos      NEDOS =    301   number of ions     NIONS =      1
   non local maximal  LDIM  =      4   non local SUM 2l+1 LMDIM =      8
   total plane-waves  NPLWV =   2744
   max r-space proj   IRMAX =      1   max aug-charges    IRDMAX=   7000
   dimension x,y,z NGX =    14 NGY =   14 NGZ =   14
   dimension x,y,z NGXF=    28 NGYF=   28 NGZF=   28
   support grid    NGXF=    28 NGYF=   28 NGZF=   28
   ions per type =               1
 NGX,Y,Z   is equivalent  to a cutoff of   8.28,  8.28,  8.28 a.u.
 NGXF,Y,Z  is equivalent  to a cutoff of  16.56, 16.56, 16.56 a.u.


 I would recommend the setting:
   dimension x,y,z NGX =    14 NGY =   14 NGZ =   14
 SYSTEM =  Al                                      
 POSCAR =  Al                                      

 Startparameter for this run:
   NWRITE =      2    write-flag & timer
   PREC   = accura    normal or accurate (medium, high low for compatibility)
   ISTART =      0    job   : 0-new  1-cont  2-samecut
   ICHARG =     11    charge: 1-file 2-atom 10-const
   ISPIN  =      1    spin polarized calculation?
   LNONCOLLINEAR =      F non collinear calculations
   LSORBIT =      F    spin-orbit coupling
   INIWAV =      1    electr: 0-lowe 1-rand  2-diag
   LASPH  =      F    aspherical Exc in radial PAW
   METAGGA=      F    non-selfconsistent MetaGGA calc.

 Electronic Relaxation 1
   ENCUT  =  250.0 eV  18.37 Ry    4.29 a.u.   3.62  3.62  3.62*2*pi/ulx,y,z
   ENINI  =  250.0     initial cutoff
   ENAUG  =  291.1 eV  augmentation charge cutoff
   NELM   =     60;   NELMIN=  2; NELMDL=  0     # of ELM steps 
   EDIFF  = 0.1E-04   stopping-criterion for ELM
   LREAL  =      F    real-space projection
   NLSPLINE    = F    spline interpolate recip. space projectors
   LCOMPAT=      F    compatible to vasp.4.4
   GGA_COMPAT  = T    GGA compatible to vasp.4.4-vasp.4.6
   LMAXPAW     = -100 max onsite density
   LMAXMIX     =    2 max onsite mixed and CHGCAR
   VOSKOWN=      0    Vosko Wilk Nusair interpolation
   ROPT   =    0.00000
 Ionic relaxation
   EDIFFG = 0.1E-03   stopping-criterion for IOM
   NSW    =      0    number of steps for IOM
   NBLOCK =      1;   KBLOCK =      1    inner block; outer block 
   IBRION =     -1    ionic relax: 0-MD 1-quasi-New 2-CG
   NFREE  =      1    steps in history (QN), initial steepest desc. (CG)
   ISIF   =      2    stress and relaxation
   IWAVPR =     10    prediction:  0-non 1-charg 2-wave 3-comb
   ISYM   =      2    0-nonsym 1-usesym 2-fastsym
   LCORR  =      T    Harris-Foulkes like correction to forces

   POTIM  = 0.5000    time-step for ionic-motion
   TEIN   =    0.0    initial temperature
   TEBEG  =    0.0;   TEEND  =   0.0 temperature during run
   SMASS  =  -3.00    Nose mass-parameter (am)
   estimated Nose-frequenzy (Omega)   =  0.10E-29 period in steps =****** mass=  -0.181E-27a.u.
   SCALEE = 1.0000    scale energy and forces
   NPACO  =    256;   APACO  = 16.0  distance and # of slots for P.C.
   PSTRESS=    0.0 pullay stress

  Mass of Ions in am
   POMASS =  26.98
  Ionic Valenz
   ZVAL   =   3.00
  Atomic Wigner-Seitz radii
   RWIGS  =  -1.00
  virtual crystal weights 
   VCA    =   1.00
   NELECT =       3.0000    total number of electrons
   NUPDOWN=      -1.0000    fix difference up-down

 DOS related values:
   EMIN   =  10.00;   EMAX   =-10.00  energy-range for DOS
   EFERMI =   0.00
   ISMEAR =     1;   SIGMA  =   0.20  broadening in eV -4-tet -1-fermi 0-gaus

 Electronic relaxation 2 (details)
   IALGO  =     38    algorithm
   LDIAG  =      T    sub-space diagonalisation (order eigenvalues)
   LSUBROT=      T    optimize rotation matrix (better conditioning)
   TURBO    =      0    0=normal 1=particle mesh
   IRESTART =      0    0=no restart 2=restart with 2 vectors
   NREBOOT  =      0    no. of reboots
   NMIN     =      0    reboot dimension
   EREF     =   0.00    reference energy to select bands
   IMIX   =      4    mixing-type and parameters
     AMIX     =   0.40;   BMIX     =  1.00
     AMIX_MAG =   1.60;   BMIX_MAG =  1.00
     AMIN     =   0.10
     WC   =   100.;   INIMIX=   1;  MIXPRE=   1;  MAXMIX= -45

 Intra band minimization:
   WEIMIN = 0.0000     energy-eigenvalue tresh-hold
   EBREAK =  0.21E-06  absolut break condition
   DEPER  =   0.30     relativ break condition  

   TIME   =   0.40     timestep for ELM

  volume/ion in A,a.u.               =      15.70       105.96
  Fermi-wavevector in a.u.,A,eV,Ry     =   0.942898  1.781819 12.096354  0.889057
  Thomas-Fermi vector in A             =   2.070553
 
 Write flags
   LWAVE  =      T    write WAVECAR
   LCHARG =      T    write CHGCAR
   LVTOT  =      F    write LOCPOT, total local potential
   LVHAR  =      F    write LOCPOT, Hartree potential only
   LELF   =      F    write electronic localiz. function (ELF)
   LORBIT =      0    0 simple, 1 ext, 2 COOP (PROOUT)


 Dipole corrections
   LMONO  =      F    monopole corrections only (constant potential shift)
   LDIPOL =      F    correct potential (dipole corrections)
   IDIPOL =      0    1-x, 2-y, 3-z, 4-all directions 
   EPSILON=  1.0000000 bulk dielectric constant

 Exchange correlation treatment:
   GGA     =    --    GGA type
   LEXCH   =     8    internal setting for exchange type
   VOSKOWN=      0    Vosko Wilk Nusair interpolation
   LHFCALC =     F    Hartree Fock is set to
   LHFONE  =     F    Hartree Fock one center treatment
   AEXX    =    0.0000 exact exchange contribution

 Linear response parameters
   LEPSILON=     F    determine dielectric tensor
   LRPA    =     F    only Hartree local field effects (RPA)
   LNABLA  =     F    use nabla operator in PAW spheres
   LVEL    =     F    velocity operator in full k-point grid
   LINTERFAST=   F  fast interpolation
   KINTER  =     0    interpolate to denser k-point grid
   CSHIFT  =0.1000    complex shift for real part using Kramers Kronig
   OMEGAMAX=  -1.0    maximum frequency
   DEG_THRESHOLD= 0.2000000E-02 threshold for treating states as degnerate
   RTIME   =    0.100 relaxation time in fs

 Orbital magnetization related:
   ORBITALMAG=     F  switch on orbital magnetization
   LCHIMAG   =     F  perturbation theory with respect to B field
   DQ        =  0.001000  dq finite difference perturbation B field



--------------------------------------------------------------------------------------------------------


 Static calculation
 charge density and potential remain constant during run
 non-spin polarized calculation
 Variant of blocked Davidson
 Davidson routine will perform the subspace rotation
 perform sub-space diagonalisation
    after iterative eigenvector-optimisation
 no mixing
 using additional bands           10
 reciprocal scheme for non local part
 use partial core corrections
 calculate Harris-corrections to forces 
   (improved forces if not selfconsistent)
 use gradient corrections 
 WARNING: stress and forces are not correct
  (second derivative of E(xc) not defined)
 use of overlap-Matrix (Vanderbilt PP)
 Methfessel and Paxton  Order N= 1 SIGMA  =   0.20


--------------------------------------------------------------------------------------------------------


  energy-cutoff  :      250.00
  volume of cell :       15.70
      direct lattice vectors                 reciprocal lattice vectors
     0.000000000  1.987500000  1.987500000    -0.251572327  0.251572327  0.251572327
     1.987500000  0.000000000  1.987500000     0.251572327 -0.251572327  0.251572327
     1.987500000  1.987500000  0.000000000     0.251572327  0.251572327 -0.251572327

  length of vectors
     2.810749455  2.810749455  2.810749455     0.435736052  0.435736052  0.435736052


 
 k-points in units of 2pi/SCALE and weight: k-points along high symmetry lines      
   0.00000000  1.00000000  0.00000000       0.010
   0.00000000  0.94736842  0.00000000       0.010
   0.00000000  0.89473684  0.00000000       0.010
   0.00000000  0.84210526  0.00000000       0.010
   0.00000000  0.78947368  0.00000000       0.010
   0.00000000  0.73684211  0.00000000       0.010
   0.00000000  0.68421053  0.00000000       0.010
   0.00000000  0.63157895  0.00000000       0.010
   0.00000000  0.57894737  0.00000000       0.010
   0.00000000  0.52631579  0.00000000       0.010
   0.00000000  0.47368421  0.00000000       0.010
   0.00000000  0.42105263  0.00000000       0.010
   0.00000000  0.36842105  0.00000000       0.010
   0.00000000  0.31578947  0.00000000       0.010
   0.00000000  0.26315789  0.00000000       0.010
   0.00000000  0.21052632  0.00000000       0.010
   0.00000000  0.15789474  0.00000000       0.010
   0.00000000  0.10526316  0.00000000       0.010
   0.00000000  0.05263158  0.00000000       0.010
   0.00000000  0.00000000  0.00000000       0.010
   0.00000000  0.00000000  0.00000000       0.010
   0.02631579  0.02631579  0.02631579       0.010
   0.05263158  0.05263158  0.05263158       0.010
   0.07894737  0.07894737  0.07894737       0.010
   0.10526316  0.10526316  0.10526316       0.010
   0.13157895  0.13157895  0.13157895       0.010
   0.15789474  0.15789474  0.15789474       0.010
   0.18421053  0.18421053  0.18421053       0.010
   0.21052632  0.21052632  0.21052632       0.010
   0.23684211  0.23684211  0.23684211       0.010
   0.26315789  0.26315789  0.26315789       0.010
   0.28947368  0.28947368  0.28947368       0.010
   0.31578947  0.31578947  0.31578947       0.010
   0.34210526  0.34210526  0.34210526       0.010
   0.36842105  0.36842105  0.36842105       0.010
   0.39473684  0.39473684  0.39473684       0.010
   0.42105263  0.42105263  0.42105263       0.010
   0.44736842  0.44736842  0.44736842       0.010
   0.47368421  0.47368421  0.47368421       0.010
   0.50000000  0.50000000  0.50000000       0.010
   0.50000000  0.50000000  0.50000000       0.010
   0.50000000  0.52631579  0.47368421       0.010
   0.50000000  0.55263158  0.44736842       0.010
   0.50000000  0.57894737  0.42105263       0.010
   0.50000000  0.60526316  0.39473684       0.010
   0.50000000  0.63157895  0.36842105       0.010
   0.50000000  0.65789474  0.34210526       0.010
   0.50000000  0.68421053  0.31578947       0.010
   0.50000000  0.71052632  0.28947368       0.010
   0.50000000  0.73684211  0.26315789       0.010
   0.50000000  0.76315789  0.23684211       0.010
   0.50000000  0.78947368  0.21052632       0.010
   0.50000000  0.81578947  0.18421053       0.010
   0.50000000  0.84210526  0.15789474       0.010
   0.50000000  0.86842105  0.13157895       0.010
   0.50000000  0.89473684  0.10526316       0.010
   0.50000000  0.92105263  0.07894737       0.010
   0.50000000  0.94736842  0.05263158       0.010
   0.50000000  0.97368421  0.02631579       0.010
   0.50000000  1.00000000  0.00000000       0.010
   0.50000000  1.00000000  0.00000000       0.010
   0.51315789  0.98684211  0.00000000       0.010
   0.52631579  0.97368421  0.00000000       0.010
   0.53947368  0.96052632  0.00000000       0.010
   0.55263158  0.94736842  0.00000000       0.010
   0.56578947  0.93421053  0.00000000       0.010
   0.57894737  0.92105263  0.00000000       0.010
   0.59210526  0.90789474  0.00000000       0.010
   0.60526316  0.89473684  0.00000000       0.010
   0.61842105  0.88157895  0.00000000       0.010
   0.63157895  0.86842105  0.00000000       0.010
   0.64473684  0.85526316  0.00000000       0.010
   0.65789474  0.84210526  0.00000000       0.010
   0.67105263  0.82894737  0.00000000       0.010
   0.68421053  0.81578947  0.00000000       0.010
   0.69736842  0.80263158  0.00000000       0.010
   0.71052632  0.78947368  0.00000000       0.010
   0.72368421  0.77631579  0.00000000       0.010
   0.73684211  0.76315789  0.00000000       0.010
   0.75000000  0.75000000  0.00000000       0.010
   0.75000000  0.75000000  0.00000000       0.010
   0.71052632  0.71052632  0.00000000       0.010
   0.67105263  0.67105263  0.00000000       0.010
   0.63157895  0.63157895  0.00000000       0.010
   0.59210526  0.59210526  0.00000000       0.010
   0.55263158  0.55263158  0.00000000       0.010
   0.51315789  0.51315789  0.00000000       0.010
   0.47368421  0.47368421  0.00000000       0.010
   0.43421053  0.43421053  0.00000000       0.010
   0.39473684  0.39473684  0.00000000       0.010
   0.35526316  0.35526316  0.00000000       0.010
   0.31578947  0.31578947  0.00000000       0.010
   0.27631579  0.27631579  0.00000000       0.010
   0.23684211  0.23684211  0.00000000       0.010
   0.19736842  0.19736842  0.00000000       0.010
   0.15789474  0.15789474  0.00000000       0.010
   0.11842105  0.11842105  0.00000000       0.010
   0.07894737  0.07894737  0.00000000       0.010
   0.03947368  0.03947368  0.00000000       0.010
   0.00000000  0.00000000  0.00000000       0.010
 
 k-points in reciprocal lattice and weights: k-points along high symmetry lines      
   0.50000000  0.00000000  0.50000000       0.010
   0.47368421  0.00000000  0.47368421       0.010
   0.44736842  0.00000000  0.44736842       0.010
   0.42105263  0.00000000  0.42105263       0.010
   0.39473684  0.00000000  0.39473684       0.010
   0.36842105  0.00000000  0.36842105       0.010
   0.34210526  0.00000000  0.34210526       0.010
   0.31578947  0.00000000  0.31578947       0.010
   0.28947368  0.00000000  0.28947368       0.010
   0.26315789  0.00000000  0.26315789       0.010
   0.23684211  0.00000000  0.23684211       0.010
   0.21052632  0.00000000  0.21052632       0.010
   0.18421053  0.00000000  0.18421053       0.010
   0.15789474  0.00000000  0.15789474       0.010
   0.13157895  0.00000000  0.13157895       0.010
   0.10526316  0.00000000  0.10526316       0.010
   0.07894737  0.00000000  0.07894737       0.010
   0.05263158  0.00000000  0.05263158       0.010
   0.02631579  0.00000000  0.02631579       0.010
   0.00000000  0.00000000  0.00000000       0.010
   0.00000000  0.00000000  0.00000000       0.010
   0.02631579  0.02631579  0.02631579       0.010
   0.05263158  0.05263158  0.05263158       0.010
   0.07894737  0.07894737  0.07894737       0.010
   0.10526316  0.10526316  0.10526316       0.010
   0.13157895  0.13157895  0.13157895       0.010
   0.15789474  0.15789474  0.15789474       0.010
   0.18421053  0.18421053  0.18421053       0.010
   0.21052632  0.21052632  0.21052632       0.010
   0.23684211  0.23684211  0.23684211       0.010
   0.26315789  0.26315789  0.26315789       0.010
   0.28947368  0.28947368  0.28947368       0.010
   0.31578947  0.31578947  0.31578947       0.010
   0.34210526  0.34210526  0.34210526       0.010
   0.36842105  0.36842105  0.36842105       0.010
   0.39473684  0.39473684  0.39473684       0.010
   0.42105263  0.42105263  0.42105263       0.010
   0.44736842  0.44736842  0.44736842       0.010
   0.47368421  0.47368421  0.47368421       0.010
   0.50000000  0.50000000  0.50000000       0.010
   0.50000000  0.50000000  0.50000000       0.010
   0.50000000  0.48684211  0.51315789       0.010
   0.50000000  0.47368421  0.52631579       0.010
   0.50000000  0.46052632  0.53947368       0.010
   0.50000000  0.44736842  0.55263158       0.010
   0.50000000  0.43421053  0.56578947       0.010
   0.50000000  0.42105263  0.57894737       0.010
   0.50000000  0.40789474  0.59210526       0.010
   0.50000000  0.39473684  0.60526316       0.010
   0.50000000  0.38157895  0.61842105       0.010
   0.50000000  0.36842105  0.63157895       0.010
   0.50000000  0.35526316  0.64473684       0.010
   0.50000000  0.34210526  0.65789474       0.010
   0.50000000  0.32894737  0.67105263       0.010
   0.50000000  0.31578947  0.68421053       0.010
   0.50000000  0.30263158  0.69736842       0.010
   0.50000000  0.28947368  0.71052632       0.010
   0.50000000  0.27631579  0.72368421       0.010
   0.50000000  0.26315789  0.73684211       0.010
   0.50000000  0.25000000  0.75000000       0.010
   0.50000000  0.25000000  0.75000000       0.010
   0.49342105  0.25657895  0.75000000       0.010
   0.48684211  0.26315789  0.75000000       0.010
   0.48026316  0.26973684  0.75000000       0.010
   0.47368421  0.27631579  0.75000000       0.010
   0.46710526  0.28289474  0.75000000       0.010
   0.46052632  0.28947368  0.75000000       0.010
   0.45394737  0.29605263  0.75000000       0.010
   0.44736842  0.30263158  0.75000000       0.010
   0.44078947  0.30921053  0.75000000       0.010
   0.43421053  0.31578947  0.75000000       0.010
   0.42763158  0.32236842  0.75000000       0.010
   0.42105263  0.32894737  0.75000000       0.010
   0.41447368  0.33552632  0.75000000       0.010
   0.40789474  0.34210526  0.75000000       0.010
   0.40131579  0.34868421  0.75000000       0.010
   0.39473684  0.35526316  0.75000000       0.010
   0.38815789  0.36184211  0.75000000       0.010
   0.38157895  0.36842105  0.75000000       0.010
   0.37500000  0.37500000  0.75000000       0.010
   0.37500000  0.37500000  0.75000000       0.010
   0.35526316  0.35526316  0.71052632       0.010
   0.33552632  0.33552632  0.67105263       0.010
   0.31578947  0.31578947  0.63157895       0.010
   0.29605263  0.29605263  0.59210526       0.010
   0.27631579  0.27631579  0.55263158       0.010
   0.25657895  0.25657895  0.51315789       0.010
   0.23684211  0.23684211  0.47368421       0.010
   0.21710526  0.21710526  0.43421053       0.010
   0.19736842  0.19736842  0.39473684       0.010
   0.17763158  0.17763158  0.35526316       0.010
   0.15789474  0.15789474  0.31578947       0.010
   0.13815789  0.13815789  0.27631579       0.010
   0.11842105  0.11842105  0.23684211       0.010
   0.09868421  0.09868421  0.19736842       0.010
   0.07894737  0.07894737  0.15789474       0.010
   0.05921053  0.05921053  0.11842105       0.010
   0.03947368  0.03947368  0.07894737       0.010
   0.01973684  0.01973684  0.03947368       0.010
   0.00000000  0.00000000  0.00000000       0.010
 
 position of ions in fractional coordinates (direct lattice) 
   0.00000000  0.00000000  0.00000000
 
 position of ions in cartesian coordinates  (Angst):
   0.00000000  0.00000000  0.00000000
 


--------------------------------------------------------------------------------------------------------


 k-point  1 :   0.5000 0.0000 0.5000  plane waves:     150
 k-point  2 :   0.4737 0.0000 0.4737  plane waves:     142
 k-point  3 :   0.4474 0.0000 0.4474  plane waves:     142
 k-point  4 :   0.4211 0.0000 0.4211  plane waves:     141
 k-point  5 :   0.3947 0.0000 0.3947  plane waves:     137
 k-point  6 :   0.3684 0.0000 0.3684  plane waves:     137
 k-point  7 :   0.3421 0.0000 0.3421  plane waves:     141
 k-point  8 :   0.3158 0.0000 0.3158  plane waves:     141
 k-point  9 :   0.2895 0.0000 0.2895  plane waves:     141
 k-point 10 :   0.2632 0.0000 0.2632  plane waves:     141
 k-point 11 :   0.2368 0.0000 0.2368  plane waves:     141
 k-point 12 :   0.2105 0.0000 0.2105  plane waves:     141
 k-point 13 :   0.1842 0.0000 0.1842  plane waves:     141
 k-point 14 :   0.1579 0.0000 0.1579  plane waves:     141
 k-point 15 :   0.1316 0.0000 0.1316  plane waves:     145
 k-point 16 :   0.1053 0.0000 0.1053  plane waves:     145
 k-point 17 :   0.0789 0.0000 0.0789  plane waves:     145
 k-point 18 :   0.0526 0.0000 0.0526  plane waves:     141
 k-point 19 :   0.0263 0.0000 0.0263  plane waves:     137
 k-point 20 :   0.0000 0.0000 0.0000  plane waves:     137
 k-point 21 :   0.0000 0.0000 0.0000  plane waves:     137
 k-point 22 :   0.0263 0.0263 0.0263  plane waves:     137
 k-point 23 :   0.0526 0.0526 0.0526  plane waves:     138
 k-point 24 :   0.0789 0.0789 0.0789  plane waves:     147
 k-point 25 :   0.1053 0.1053 0.1053  plane waves:     147
 k-point 26 :   0.1316 0.1316 0.1316  plane waves:     147
 k-point 27 :   0.1579 0.1579 0.1579  plane waves:     150
 k-point 28 :   0.1842 0.1842 0.1842  plane waves:     150
 k-point 29 :   0.2105 0.2105 0.2105  plane waves:     150
 k-point 30 :   0.2368 0.2368 0.2368  plane waves:     150
 k-point 31 :   0.2632 0.2632 0.2632  plane waves:     144
 k-point 32 :   0.2895 0.2895 0.2895  plane waves:     144
 k-point 33 :   0.3158 0.3158 0.3158  plane waves:     144
 k-point 34 :   0.3421 0.3421 0.3421  plane waves:     144
 k-point 35 :   0.3684 0.3684 0.3684  plane waves:     144
 k-point 36 :   0.3947 0.3947 0.3947  plane waves:     147
 k-point 37 :   0.4211 0.4211 0.4211  plane waves:     147
 k-point 38 :   0.4474 0.4474 0.4474  plane waves:     147
 k-point 39 :   0.4737 0.4737 0.4737  plane waves:     138
 k-point 40 :   0.5000 0.5000 0.5000  plane waves:     138
 k-point 41 :   0.5000 0.5000 0.5000  plane waves:     138
 k-point 42 :   0.5000 0.4868 0.5132  plane waves:     138
 k-point 43 :   0.5000 0.4737 0.5263  plane waves:     138
 k-point 44 :   0.5000 0.4605 0.5395  plane waves:     140
 k-point 45 :   0.5000 0.4474 0.5526  plane waves:     140
 k-point 46 :   0.5000 0.4342 0.5658  plane waves:     142
 k-point 47 :   0.5000 0.4211 0.5789  plane waves:     142
 k-point 48 :   0.5000 0.4079 0.5921  plane waves:     140
 k-point 49 :   0.5000 0.3947 0.6053  plane waves:     140
 k-point 50 :   0.5000 0.3816 0.6184  plane waves:     142
 k-point 51 :   0.5000 0.3684 0.6316  plane waves:     142
 k-point 52 :   0.5000 0.3553 0.6447  plane waves:     140
 k-point 53 :   0.5000 0.3421 0.6579  plane waves:     140
 k-point 54 :   0.5000 0.3289 0.6711  plane waves:     142
 k-point 55 :   0.5000 0.3158 0.6842  plane waves:     142
 k-point 56 :   0.5000 0.3026 0.6974  plane waves:     142
 k-point 57 :   0.5000 0.2895 0.7105  plane waves:     144
 k-point 58 :   0.5000 0.2763 0.7237  plane waves:     144
 k-point 59 :   0.5000 0.2632 0.7368  plane waves:     144
 k-point 60 :   0.5000 0.2500 0.7500  plane waves:     144
 k-point 61 :   0.5000 0.2500 0.7500  plane waves:     144
 k-point 62 :   0.4934 0.2566 0.7500  plane waves:     144
 k-point 63 :   0.4868 0.2632 0.7500  plane waves:     144
 k-point 64 :   0.4803 0.2697 0.7500  plane waves:     144
 k-point 65 :   0.4737 0.2763 0.7500  plane waves:     144
 k-point 66 :   0.4671 0.2829 0.7500  plane waves:     144
 k-point 67 :   0.4605 0.2895 0.7500  plane waves:     145
 k-point 68 :   0.4539 0.2961 0.7500  plane waves:     140
 k-point 69 :   0.4474 0.3026 0.7500  plane waves:     140
 k-point 70 :   0.4408 0.3092 0.7500  plane waves:     142
 k-point 71 :   0.4342 0.3158 0.7500  plane waves:     142
 k-point 72 :   0.4276 0.3224 0.7500  plane waves:     136
 k-point 73 :   0.4211 0.3289 0.7500  plane waves:     136
 k-point 74 :   0.4145 0.3355 0.7500  plane waves:     136
 k-point 75 :   0.4079 0.3421 0.7500  plane waves:     136
 k-point 76 :   0.4013 0.3487 0.7500  plane waves:     136
 k-point 77 :   0.3947 0.3553 0.7500  plane waves:     136
 k-point 78 :   0.3882 0.3618 0.7500  plane waves:     138
 k-point 79 :   0.3816 0.3684 0.7500  plane waves:     138
 k-point 80 :   0.3750 0.3750 0.7500  plane waves:     138
 k-point 81 :   0.3750 0.3750 0.7500  plane waves:     138
 k-point 82 :   0.3553 0.3553 0.7105  plane waves:     138
 k-point 83 :   0.3355 0.3355 0.6711  plane waves:     138
 k-point 84 :   0.3158 0.3158 0.6316  plane waves:     140
 k-point 85 :   0.2961 0.2961 0.5921  plane waves:     140
 k-point 86 :   0.2763 0.2763 0.5526  plane waves:     138
 k-point 87 :   0.2566 0.2566 0.5132  plane waves:     138
 k-point 88 :   0.2368 0.2368 0.4737  plane waves:     140
 k-point 89 :   0.2171 0.2171 0.4342  plane waves:     144
 k-point 90 :   0.1974 0.1974 0.3947  plane waves:     144
 k-point 91 :   0.1776 0.1776 0.3553  plane waves:     143
 k-point 92 :   0.1579 0.1579 0.3158  plane waves:     143
 k-point 93 :   0.1382 0.1382 0.2763  plane waves:     143
 k-point 94 :   0.1184 0.1184 0.2368  plane waves:     145
 k-point 95 :   0.0987 0.0987 0.1974  plane waves:     143
 k-point 96 :   0.0789 0.0789 0.1579  plane waves:     147
 k-point 97 :   0.0592 0.0592 0.1184  plane waves:     147
 k-point 98 :   0.0395 0.0395 0.0789  plane waves:     143
 k-point 99 :   0.0197 0.0197 0.0395  plane waves:     137
 k-point ** :   0.0000 0.0000 0.0000  plane waves:     137

 maximum and minimum number of plane-waves per node :       150      136

 maximum number of plane-waves:       150
 maximum index in each direction: 
   IXMAX=    3   IYMAX=    3   IZMAX=    3
   IXMIN=   -4   IYMIN=   -4   IZMIN=   -4

 WARNING: aliasing errors must be expected set NGX to  16 to avoid them
 WARNING: aliasing errors must be expected set NGY to  16 to avoid them
 WARNING: aliasing errors must be expected set NGZ to  16 to avoid them
 aliasing errors are usually negligible using standard VASP settings
 and one can safely disregard these warnings

 serial   3D FFT for wavefunctions
 parallel 3D FFT for charge:
    minimum data exchange during FFTs selected (reduces bandwidth)


 total amount of memory used by VASP on root node    36014. kBytes
========================================================================

   base      :      30000. kBytes
   nonl-proj :        962. kBytes
   fftplans  :        800. kBytes
   grid      :       1216. kBytes
   one-center:          3. kBytes
   wavefun   :       3033. kBytes
 
 initial charge density was supplied:
 number of electron       3.0000000 magnetization 
 keeping initial charge density in first step


--------------------------------------------------------------------------------------------------------


 Maximum index for augmentation-charges         6603 (set IRDMAX)


--------------------------------------------------------------------------------------------------------


 First call to EWALD:  gamma=   0.708
 Maximum number of real-space cells 3x 3x 3
 Maximum number of reciprocal cells 3x 3x 3

 FEWALD executed in parallel
    FEWALD:  cpu time    0.07: real time    0.00


----------------------------------------- Iteration    1(   1)  ---------------------------------------


    POTLOK:  cpu time    0.74: real time    0.02
    SETDIJ:  cpu time    0.09: real time    0.00
     EDDAV:  cpu time   48.85: real time    1.58
       DOS:  cpu time    0.30: real time    0.01
    --------------------------------------------
      LOOP:  cpu time   50.01: real time    1.62

 eigenvalue-minimisations  :  2796
 total energy-change (2. order) :-0.2161157E+01  (-0.4895068E+02)
 number of electron       3.0000000 magnetization 
 augmentation part        3.0000000 magnetization 

 Free energy of the ion-electron system (eV)
  ---------------------------------------------------
  alpha Z        PSCENC =        -0.21391158
  Ewald energy   TEWEN  =       -74.74079779
  -1/2 Hartree   DENC   =        -0.11606305
  -exchange  EXHF       =         0.00000000
  -V(xc)+E(xc)   XCENC  =       -26.03027837
  PAW double counting   =        35.98065828       -4.05046090
  entropy T*S    EENTRO =         0.00018389
  eigenvalues    EBANDS =        13.47335045
  atomic energy  EATOM  =        53.53616173
  ---------------------------------------------------
  free energy    TOTEN  =        -2.16115734 eV

  energy without entropy =       -2.16134123  energy(sigma->0) =       -2.16121864


--------------------------------------------------------------------------------------------------------




----------------------------------------- Iteration    1(   2)  ---------------------------------------


     EDDAV:  cpu time   57.46: real time    1.86
       DOS:  cpu time    0.31: real time    0.01
    --------------------------------------------
      LOOP:  cpu time   57.82: real time    1.87

 eigenvalue-minimisations  :  3084
 total energy-change (2. order) :-0.2164502E+01  (-0.2108450E+01)
 number of electron       3.0000000 magnetization 
 augmentation part        3.0000000 magnetization 

 Free energy of the ion-electron system (eV)
  ---------------------------------------------------
  alpha Z        PSCENC =        -0.21391158
  Ewald energy   TEWEN  =       -74.74079779
  -1/2 Hartree   DENC   =        -0.11606305
  -exchange  EXHF       =         0.00000000
  -V(xc)+E(xc)   XCENC  =       -26.03027837
  PAW double counting   =        35.98065828       -4.05046090
  entropy T*S    EENTRO =         0.00019699
  eigenvalues    EBANDS =        11.30883575
  atomic energy  EATOM  =        53.53616173
  ---------------------------------------------------
  free energy    TOTEN  =        -4.32565893 eV

  energy without entropy =       -4.32585592  energy(sigma->0) =       -4.32572459


--------------------------------------------------------------------------------------------------------




----------------------------------------- Iteration    1(   3)  ---------------------------------------


     EDDAV:  cpu time   55.52: real time    1.80
       DOS:  cpu time    0.31: real time    0.01
    --------------------------------------------
      LOOP:  cpu time   55.89: real time    1.82

 eigenvalue-minimisations  :  2952
 total energy-change (2. order) :-0.2318496E-01  (-0.2317244E-01)
 number of electron       3.0000000 magnetization 
 augmentation part        3.0000000 magnetization 

 Free energy of the ion-electron system (eV)
  ---------------------------------------------------
  alpha Z        PSCENC =        -0.21391158
  Ewald energy   TEWEN  =       -74.74079779
  -1/2 Hartree   DENC   =        -0.11606305
  -exchange  EXHF       =         0.00000000
  -V(xc)+E(xc)   XCENC  =       -26.03027837
  PAW double counting   =        35.98065828       -4.05046090
  entropy T*S    EENTRO =         0.00028371
  eigenvalues    EBANDS =        11.28556407
  atomic energy  EATOM  =        53.53616173
  ---------------------------------------------------
  free energy    TOTEN  =        -4.34884389 eV

  energy without entropy =       -4.34912761  energy(sigma->0) =       -4.34893846


--------------------------------------------------------------------------------------------------------




----------------------------------------- Iteration    1(   4)  ---------------------------------------


     EDDAV:  cpu time   54.31: real time    1.76
       DOS:  cpu time    0.32: real time    0.01
    --------------------------------------------
      LOOP:  cpu time   54.69: real time    1.77

 eigenvalue-minimisations  :  2844
 total energy-change (2. order) :-0.3873076E-04  (-0.3872909E-04)
 number of electron       3.0000000 magnetization 
 augmentation part        3.0000000 magnetization 

 Free energy of the ion-electron system (eV)
  ---------------------------------------------------
  alpha Z        PSCENC =        -0.21391158
  Ewald energy   TEWEN  =       -74.74079779
  -1/2 Hartree   DENC   =        -0.11606305
  -exchange  EXHF       =         0.00000000
  -V(xc)+E(xc)   XCENC  =       -26.03027837
  PAW double counting   =        35.98065828       -4.05046090
  entropy T*S    EENTRO =         0.00028396
  eigenvalues    EBANDS =        11.28552509
  atomic energy  EATOM  =        53.53616173
  ---------------------------------------------------
  free energy    TOTEN  =        -4.34888262 eV

  energy without entropy =       -4.34916658  energy(sigma->0) =       -4.34897728


--------------------------------------------------------------------------------------------------------




----------------------------------------- Iteration    1(   5)  ---------------------------------------


     EDDAV:  cpu time   55.94: real time    1.81
       DOS:  cpu time    0.27: real time    0.01
    --------------------------------------------
      LOOP:  cpu time   56.26: real time    1.82

 eigenvalue-minimisations  :  2964
 total energy-change (2. order) :-0.1679254E-06  (-0.1679939E-06)
 number of electron       3.0000000 magnetization 
 augmentation part        3.0000000 magnetization 

 Free energy of the ion-electron system (eV)
  ---------------------------------------------------
  alpha Z        PSCENC =        -0.21391158
  Ewald energy   TEWEN  =       -74.74079779
  -1/2 Hartree   DENC   =        -0.11606305
  -exchange  EXHF       =         0.00000000
  -V(xc)+E(xc)   XCENC  =       -26.03027837
  PAW double counting   =        35.98065828       -4.05046090
  entropy T*S    EENTRO =         0.00028396
  eigenvalues    EBANDS =        11.28552493
  atomic energy  EATOM  =        53.53616173
  ---------------------------------------------------
  free energy    TOTEN  =        -4.34888279 eV

  energy without entropy =       -4.34916675  energy(sigma->0) =       -4.34897744


--------------------------------------------------------------------------------------------------------




----------------------------------------- Iteration    1(   6)  ---------------------------------------


     EDDAV:  cpu time   40.37: real time    1.31
       DOS:  cpu time    0.30: real time    0.01
    --------------------------------------------
      LOOP:  cpu time   40.72: real time    1.32

 eigenvalue-minimisations  :  2176
 total energy-change (2. order) :-0.8850805E-09  (-0.9022457E-09)
 number of electron       3.0000000 magnetization 
 augmentation part        3.0000000 magnetization 

 Free energy of the ion-electron system (eV)
  ---------------------------------------------------
  alpha Z        PSCENC =        -0.21391158
  Ewald energy   TEWEN  =       -74.74079779
  -1/2 Hartree   DENC   =        -0.11606305
  -exchange  EXHF       =         0.00000000
  -V(xc)+E(xc)   XCENC  =       -26.03027837
  PAW double counting   =        35.98065828       -4.05046090
  entropy T*S    EENTRO =         0.00028396
  eigenvalues    EBANDS =        11.28552492
  atomic energy  EATOM  =        53.53616173
  ---------------------------------------------------
  free energy    TOTEN  =        -4.34888279 eV

  energy without entropy =       -4.34916675  energy(sigma->0) =       -4.34897745


--------------------------------------------------------------------------------------------------------




 average (electrostatic) potential at core
  the test charge radii are     1.0406
  (the norm of the test charge is              1.0000)
       1 -72.0146
 
 
 
 E-fermi :   7.7807     XC(G=0): -10.3764     alpha+bet :-15.6325


 k-point   1 :       0.5000    0.0000    0.5000
  band No.  band energies     occupation 
      1       5.4880      2.00000
      2       6.9239      2.00000
      3      13.8318      0.00000
      4      14.3641      0.00000
      5      14.3641      0.00000
      6      18.0998      0.00000
      7      34.9115      0.00000
      8      36.5061      0.00000
      9      36.5062      0.00000
     10      42.0762      0.00000
     11      43.1910      0.00000
     12      43.1967      0.00000

 k-point   2 :       0.4737    0.0000    0.4737
  band No.  band energies     occupation 
      1       5.0481      2.00000
      2       7.4105      2.02510
      3      13.8585      0.00000
      4      14.3860      0.00000
      5      14.3861      0.00000
      6      18.1251      0.00000
      7      34.8147      0.00000
      8      36.4776      0.00000
      9      36.4776      0.00000
     10      42.2441      0.00000
     11      43.0882      0.00000
     12      43.2551      0.00000

 k-point   3 :       0.4474    0.0000    0.4474
  band No.  band energies     occupation 
      1       4.2895      2.00000
      2       8.3029     -0.00139
      3      13.9354      0.00000
      4      14.4517      0.00000
      5      14.4517      0.00000
      6      18.1966      0.00000
      7      34.5137      0.00000
      8      36.2145      0.00000
      9      36.2145      0.00000
     10      42.2862      0.00000
     11      42.7088      0.00000
     12      43.3567      0.00000

 k-point   4 :       0.4211    0.0000    0.4211
  band No.  band energies     occupation 
      1       3.5087      2.00000
      2       9.3080      0.00000
      3      14.0636      0.00000
      4      14.5612      0.00000
      5      14.5612      0.00000
      6      18.3164      0.00000
      7      34.0813      0.00000
      8      35.8191      0.00000
      9      35.8191      0.00000
     10      41.4224      0.00000
     11      43.2532      0.00000
     12      43.3492      0.00000

 k-point   5 :       0.3947    0.0000    0.3947
  band No.  band energies     occupation 
      1       2.7536      2.00000
      2      10.3752      0.00000
      3      14.2429      0.00000
      4      14.7147      0.00000
      5      14.7148      0.00000
      6      18.4808      0.00000
      7      33.5899      0.00000
      8      35.3486      0.00000
      9      35.3486      0.00000
     10      40.5343      0.00000
     11      42.6490      0.00000
     12      42.6492      0.00000

 k-point   6 :       0.3684    0.0000    0.3684
  band No.  band energies     occupation 
      1       2.0369      2.00000
      2      11.4930      0.00000
      3      14.4733      0.00000
      4      14.9122      0.00000
      5      14.9123      0.00000
      6      18.6898      0.00000
      7      33.0488      0.00000
      8      34.7777      0.00000
      9      34.7778      0.00000
     10      39.6459      0.00000
     11      41.6277      0.00000
     12      41.6277      0.00000

 k-point   7 :       0.3421    0.0000    0.3421
  band No.  band energies     occupation 
      1       1.3623      2.00000
      2      12.6529      0.00000
      3      14.7544      0.00000
      4      15.1531      0.00000
      5      15.1531      0.00000
      6      18.9399      0.00000
      7      32.5021      0.00000
      8      34.1294      0.00000
      9      34.1294      0.00000
     10      38.7378      0.00000
     11      40.4824      0.00000
     12      40.4898      0.00000

 k-point   8 :       0.3158    0.0000    0.3158
  band No.  band energies     occupation 
      1       0.7342      2.00000
      2      13.8579      0.00000
      3      15.0860      0.00000
      4      15.4385      0.00000
      5      15.4385      0.00000
      6      19.2323      0.00000
      7      31.9711      0.00000
      8      33.4350      0.00000
      9      33.4350      0.00000
     10      37.8791      0.00000
     11      39.2566      0.00000
     12      39.3696      0.00000

 k-point   9 :       0.2895    0.0000    0.2895
  band No.  band energies     occupation 
      1       0.1530      2.00000
      2      15.1033      0.00000
      3      15.4677      0.00000
      4      15.7679      0.00000
      5      15.7679      0.00000
      6      19.5621      0.00000
      7      31.4650      0.00000
      8      32.6767      0.00000
      9      32.6768      0.00000
     10      37.0449      0.00000
     11      37.6864      0.00000
     12      38.3456      0.00000

 k-point  10 :       0.2632    0.0000    0.2632
  band No.  band energies     occupation 
      1      -0.3802      2.00000
      2      15.8988      0.00000
      3      16.1412      0.00000
      4      16.1412      0.00000
      5      16.3867      0.00000
      6      19.9256      0.00000
      7      30.9913      0.00000
      8      31.8528      0.00000
      9      31.8528      0.00000
     10      36.1698      0.00000
     11      36.2384      0.00000
     12      37.4398      0.00000

 k-point  11 :       0.2368    0.0000    0.2368
  band No.  band energies     occupation 
      1      -0.8648      2.00000
      2      16.3756      0.00000
      3      16.5553      0.00000
      4      16.5553      0.00000
      5      17.7108      0.00000
      6      20.3206      0.00000
      7      30.6030      0.00000
      8      30.9451      0.00000
      9      30.9451      0.00000
     10      34.6861      0.00000
     11      35.4763      0.00000
     12      36.6666      0.00000

 k-point  12 :       0.2105    0.0000    0.2105
  band No.  band energies     occupation 
      1      -1.2999      2.00000
      2      16.9022      0.00000
      3      17.0152      0.00000
      4      17.0153      0.00000
      5      19.0623      0.00000
      6      20.7371      0.00000
      7      30.0147      0.00000
      8      30.0147      0.00000
      9      30.2047      0.00000
     10      33.2794      0.00000
     11      34.7319      0.00000
     12      36.0145      0.00000

 k-point  13 :       0.1842    0.0000    0.1842
  band No.  band energies     occupation 
      1      -1.6849      2.00000
      2      17.4742      0.00000
      3      17.5181      0.00000
      4      17.5181      0.00000
      5      20.4351      0.00000
      6      21.1765      0.00000
      7      29.0525      0.00000
      8      29.0525      0.00000
      9      29.8496      0.00000
     10      31.9304      0.00000
     11      34.0259      0.00000
     12      35.4761      0.00000

 k-point  14 :       0.1579    0.0000    0.1579
  band No.  band energies     occupation 
      1      -2.0196      2.00000
      2      18.0629      0.00000
      3      18.0629      0.00000
      4      18.0884      0.00000
      5      21.5470      0.00000
      6      21.9048      0.00000
      7      28.0771      0.00000
      8      28.0771      0.00000
      9      29.5394      0.00000
     10      30.6425      0.00000
     11      33.3657      0.00000
     12      35.0373      0.00000

 k-point  15 :       0.1316    0.0000    0.1316
  band No.  band energies     occupation 
      1      -2.3037      2.00000
      2      18.6444      0.00000
      3      18.6444      0.00000
      4      18.7386      0.00000
      5      22.0062      0.00000
      6      23.2848      0.00000
      7      27.0954      0.00000
      8      27.0954      0.00000
      9      29.2754      0.00000
     10      29.4170      0.00000
     11      32.7547      0.00000
     12      34.6843      0.00000

 k-point  16 :       0.1053    0.0000    0.1053
  band No.  band energies     occupation 
      1      -2.5363      2.00000
      2      19.2654      0.00000
      3      19.2654      0.00000
      4      19.4164      0.00000
      5      22.4127      0.00000
      6      24.6924      0.00000
      7      26.1448      0.00000
      8      26.1448      0.00000
      9      28.2723      0.00000
     10      29.0585      0.00000
     11      32.2278      0.00000
     12      34.4081      0.00000

 k-point  17 :       0.0789    0.0000    0.0789
  band No.  band energies     occupation 
      1      -2.7176      2.00000
      2      19.9157      0.00000
      3      19.9157      0.00000
      4      20.1020      0.00000
      5      22.7705      0.00000
      6      25.2302      0.00000
      7      25.2302      0.00000
      8      26.0612      0.00000
      9      27.2237      0.00000
     10      28.8892      0.00000
     11      31.8056      0.00000
     12      34.2002      0.00000

 k-point  18 :       0.0526    0.0000    0.0526
  band No.  band energies     occupation 
      1      -2.8471      2.00000
      2      20.5835      0.00000
      3      20.5835      0.00000
      4      20.7658      0.00000
      5      23.0560      0.00000
      6      24.3805      0.00000
      7      24.3805      0.00000
      8      26.3131      0.00000
      9      27.3096      0.00000
     10      28.7679      0.00000
     11      31.5377      0.00000
     12      34.0560      0.00000

 k-point  19 :       0.0263    0.0000    0.0263
  band No.  band energies     occupation 
      1      -2.9249      2.00000
      2      21.1944      0.00000
      3      21.1945      0.00000
      4      21.2876      0.00000
      5      23.2430      0.00000
      6      23.6551      0.00000
      7      23.6551      0.00000
      8      25.6358      0.00000
      9      28.3036      0.00000
     10      28.6951      0.00000
     11      31.4848      0.00000
     12      33.9705      0.00000

 k-point  20 :       0.0000    0.0000    0.0000
  band No.  band energies     occupation 
      1      -2.9508      2.00000
      2      21.5023      0.00000
      3      21.5023      0.00000
      4      21.5023      0.00000
      5      23.3078      0.00000
      6      23.3078      0.00000
      7      23.3079      0.00000
      8      25.3692      0.00000
      9      28.6708      0.00000
     10      28.6708      0.00000
     11      31.5495      0.00000
     12      33.9421      0.00000

 k-point  21 :       0.0000    0.0000    0.0000
  band No.  band energies     occupation 
      1      -2.9508      2.00000
      2      21.5023      0.00000
      3      21.5023      0.00000
      4      21.5023      0.00000
      5      23.3078      0.00000
      6      23.3078      0.00000
      7      23.3079      0.00000
      8      25.3692      0.00000
      9      28.6708      0.00000
     10      28.6708      0.00000
     11      31.5495      0.00000
     12      33.9421      0.00000

 k-point  22 :       0.0263    0.0263    0.0263
  band No.  band energies     occupation 
      1      -2.9313      2.00000
      2      21.0335      0.00000
      3      21.4276      0.00000
      4      21.4276      0.00000
      5      23.4139      0.00000
      6      23.4139      0.00000
      7      23.5468      0.00000
      8      25.5853      0.00000
      9      28.5415      0.00000
     10      28.5415      0.00000
     11      31.4644      0.00000
     12      34.0591      0.00000

 k-point  23 :       0.0526    0.0526    0.0526
  band No.  band energies     occupation 
      1      -2.8730      2.00000
      2      20.0897      0.00000
      3      21.2435      0.00000
      4      21.2435      0.00000
      5      23.6913      0.00000
      6      23.6913      0.00000
      7      23.7992      0.00000
      8      26.2277      0.00000
      9      28.1960      0.00000
     10      28.1960      0.00000
     11      31.2347      0.00000
     12      34.3867      0.00000

 k-point  24 :       0.0789    0.0789    0.0789
  band No.  band energies     occupation 
      1      -2.7759      2.00000
      2      19.0272      0.00000
      3      21.0097      0.00000
      4      21.0097      0.00000
      5      23.8697      0.00000
      6      24.0717      0.00000
      7      24.0717      0.00000
      8      27.1506      0.00000
      9      27.6722      0.00000
     10      27.6722      0.00000
     11      30.9068      0.00000
     12      34.8829      0.00000

 k-point  25 :       0.1053    0.1053    0.1053
  band No.  band energies     occupation 
      1      -2.6399      2.00000
      2      17.9323      0.00000
      3      20.7722      0.00000
      4      20.7722      0.00000
      5      23.8398      0.00000
      6      24.5121      0.00000
      7      24.5121      0.00000
      8      27.1425      0.00000
      9      27.1425      0.00000
     10      28.1901      0.00000
     11      30.5149      0.00000
     12      35.5313      0.00000

 k-point  26 :       0.1316    0.1316    0.1316
  band No.  band energies     occupation 
      1      -2.4652      2.00000
      2      16.8330      0.00000
      3      20.5458      0.00000
      4      20.5458      0.00000
      5      23.7641      0.00000
      6      24.9612      0.00000
      7      24.9612      0.00000
      8      26.6305      0.00000
      9      26.6305      0.00000
     10      29.2616      0.00000
     11      30.0828      0.00000
     12      36.3165      0.00000

 k-point  27 :       0.1579    0.1579    0.1579
  band No.  band energies     occupation 
      1      -2.2519      2.00000
      2      15.7445      0.00000
      3      20.3319      0.00000
      4      20.3319      0.00000
      5      23.6684      0.00000
      6      25.2439      0.00000
      7      25.2439      0.00000
      8      26.3110      0.00000
      9      26.3110      0.00000
     10      29.6038      0.00000
     11      30.3599      0.00000
     12      37.2366      0.00000

 k-point  28 :       0.1842    0.1842    0.1842
  band No.  band energies     occupation 
      1      -2.0004      2.00000
      2      14.6703      0.00000
      3      20.1512      0.00000
      4      20.1512      0.00000
      5      23.5717      0.00000
      6      25.0361      0.00000
      7      25.0361      0.00000
      8      26.5465      0.00000
      9      26.5465      0.00000
     10      29.1262      0.00000
     11      31.4139      0.00000
     12      38.2761      0.00000

 k-point  29 :       0.2105    0.2105    0.2105
  band No.  band energies     occupation 
      1      -1.7107      2.00000
      2      13.6173      0.00000
      3      19.9982      0.00000
      4      19.9982      0.00000
      5      23.4827      0.00000
      6      24.5713      0.00000
      7      24.5713      0.00000
      8      27.0936      0.00000
      9      27.0936      0.00000
     10      28.6378      0.00000
     11      32.4500      0.00000
     12      39.4258      0.00000

 k-point  30 :       0.2368    0.2368    0.2368
  band No.  band energies     occupation 
      1      -1.3833      2.00000
      2      12.5884      0.00000
      3      19.8744      0.00000
      4      19.8744      0.00000
      5      23.4088      0.00000
      6      24.0680      0.00000
      7      24.0680      0.00000
      8      27.7362      0.00000
      9      27.7362      0.00000
     10      28.1494      0.00000
     11      33.4655      0.00000
     12      40.6756      0.00000

 k-point  31 :       0.2632    0.2632    0.2632
  band No.  band energies     occupation 
      1      -1.0180      2.00000
      2      11.5858      0.00000
      3      19.7860      0.00000
      4      19.7860      0.00000
      5      23.3552      0.00000
      6      23.5756      0.00000
      7      23.5756      0.00000
      8      27.6680      0.00000
      9      28.4523      0.00000
     10      28.4523      0.00000
     11      34.4677      0.00000
     12      41.9949      0.00000

 k-point  32 :       0.2895    0.2895    0.2895
  band No.  band energies     occupation 
      1      -0.6156      2.00000
      2      10.6109      0.00000
      3      19.7228      0.00000
      4      19.7228      0.00000
      5      23.1011      0.00000
      6      23.1011      0.00000
      7      23.3261      0.00000
      8      27.1990      0.00000
      9      29.1819      0.00000
     10      29.1819      0.00000
     11      35.4489      0.00000
     12      43.3225      0.00000

 k-point  33 :       0.3158    0.3158    0.3158
  band No.  band energies     occupation 
      1      -0.1763      2.00000
      2       9.6651      0.00000
      3      19.6909      0.00000
      4      19.6909      0.00000
      5      22.6531      0.00000
      6      22.6531      0.00000
      7      23.3242      0.00000
      8      26.7472      0.00000
      9      29.9389      0.00000
     10      29.9389      0.00000
     11      36.4151      0.00000
     12      44.1206      0.00000

 k-point  34 :       0.3421    0.3421    0.3421
  band No.  band energies     occupation 
      1       0.2997      2.00000
      2       8.7494      0.00000
      3      19.6908      0.00000
      4      19.6908      0.00000
      5      22.2343      0.00000
      6      22.2343      0.00000
      7      23.3516      0.00000
      8      26.3165      0.00000
      9      30.7152      0.00000
     10      30.7152      0.00000
     11      37.3636      0.00000
     12      44.2627      0.00000

 k-point  35 :       0.3684    0.3684    0.3684
  band No.  band energies     occupation 
      1       0.8117      2.00000
      2       7.8645      0.35494
      3      19.7226      0.00000
      4      19.7226      0.00000
      5      21.8463      0.00000
      6      21.8463      0.00000
      7      23.4093      0.00000
      8      25.9106      0.00000
      9      31.4998      0.00000
     10      31.4998      0.00000
     11      38.2869      0.00000
     12      43.6844      0.00000

 k-point  36 :       0.3947    0.3947    0.3947
  band No.  band energies     occupation 
      1       1.3594      2.00000
      2       7.0110      2.00000
      3      19.7861      0.00000
      4      19.7861      0.00000
      5      21.4903      0.00000
      6      21.4903      0.00000
      7      23.4974      0.00000
      8      25.5317      0.00000
      9      32.2619      0.00000
     10      32.2619      0.00000
     11      39.1689      0.00000
     12      42.7954      0.00000

 k-point  37 :       0.4211    0.4211    0.4211
  band No.  band energies     occupation 
      1       1.9421      2.00000
      2       6.1906      2.00000
      3      19.8813      0.00000
      4      19.8813      0.00000
      5      21.1671      0.00000
      6      21.1671      0.00000
      7      23.6150      0.00000
      8      25.1863      0.00000
      9      32.9965      0.00000
     10      32.9965      0.00000
     11      39.9816      0.00000
     12      41.9194      0.00000

 k-point  38 :       0.4474    0.4474    0.4474
  band No.  band energies     occupation 
      1       2.5582      2.00000
      2       5.4046      2.00000
      3      20.0069      0.00000
      4      20.0069      0.00000
      5      20.8785      0.00000
      6      20.8785      0.00000
      7      23.7569      0.00000
      8      24.8804      0.00000
      9      33.6400      0.00000
     10      33.6400      0.00000
     11      40.6803      0.00000
     12      41.1512      0.00000

 k-point  39 :       0.4737    0.4737    0.4737
  band No.  band energies     occupation 
      1       3.2041      2.00000
      2       4.6599      2.00000
      3      20.1585      0.00000
      4      20.1585      0.00000
      5      20.6319      0.00000
      6      20.6319      0.00000
      7      23.9079      0.00000
      8      24.6460      0.00000
      9      34.1488      0.00000
     10      34.1488      0.00000
     11      40.6051      0.00000
     12      40.6061      0.00000

 k-point  40 :       0.5000    0.5000    0.5000
  band No.  band energies     occupation 
      1       3.7386      2.00000
      2       4.0914      2.00000
      3      20.2730      0.00000
      4      20.2730      0.00000
      5      20.4845      0.00000
      6      20.4845      0.00000
      7      23.9856      0.00000
      8      24.5352      0.00000
      9      34.3234      0.00000
     10      34.3234      0.00000
     11      40.4024      0.00000
     12      40.4031      0.00000

 k-point  41 :       0.5000    0.5000    0.5000
  band No.  band energies     occupation 
      1       3.7386      2.00000
      2       4.0914      2.00000
      3      20.2730      0.00000
      4      20.2730      0.00000
      5      20.4845      0.00000
      6      20.4845      0.00000
      7      23.9856      0.00000
      8      24.5352      0.00000
      9      34.3234      0.00000
     10      34.3234      0.00000
     11      40.4024      0.00000
     12      40.4032      0.00000

 k-point  42 :       0.5000    0.4868    0.5132
  band No.  band energies     occupation 
      1       3.7506      2.00000
      2       4.1040      2.00000
      3      19.7903      0.00000
      4      19.8463      0.00000
      5      20.8190      0.00000
      6      20.8198      0.00000
      7      24.1687      0.00000
      8      24.6515      0.00000
      9      34.2285      0.00000
     10      34.2906      0.00000
     11      40.3902      0.00000
     12      40.4528      0.00000

 k-point  43 :       0.5000    0.4737    0.5263
  band No.  band energies     occupation 
      1       3.7865      2.00000
      2       4.1419      2.00000
      3      19.1150      0.00000
      4      19.2598      0.00000
      5      21.1014      0.00000
      6      21.1470      0.00000
      7      24.6692      0.00000
[...]
      7      29.5983      0.00000
      8      30.4724      0.00000
      9      34.3708      0.00000
     10      38.3193      0.00000
     11      42.3929      0.00000
     12      43.6556      0.00000

 k-point  75 :       0.4079    0.3421    0.7500
  band No.  band energies     occupation 
      1       6.6313      2.00000
      2       7.1537      2.00009
      3       8.3014     -0.00144
      4      13.9151      0.00000
      5      18.6142      0.00000
      6      24.8931      0.00000
      7      29.9777      0.00000
      8      30.6783      0.00000
      9      34.0249      0.00000
     10      38.0740      0.00000
     11      42.3187      0.00000
     12      43.6255      0.00000

 k-point  76 :       0.4013    0.3487    0.7500
  band No.  band energies     occupation 
      1       6.6046      2.00000
      2       7.1284      2.00004
      3       8.2773     -0.00250
      4      14.2947      0.00000
      5      18.1891      0.00000
      6      24.8680      0.00000
      7      30.3533      0.00000
      8      30.8589      0.00000
      9      33.6737      0.00000
     10      37.8607      0.00000
     11      42.2599      0.00000
     12      43.6008      0.00000

 k-point  77 :       0.3947    0.3553    0.7500
  band No.  band energies     occupation 
      1       6.5839      2.00000
      2       7.1086      2.00002
      3       8.2584     -0.00376
      4      14.6614      0.00000
      5      17.7871      0.00000
      6      24.8485      0.00000
      7      30.7198      0.00000
      8      31.0081      0.00000
      9      33.3245      0.00000
     10      37.6857      0.00000
     11      42.2154      0.00000
     12      43.5815      0.00000

 k-point  78 :       0.3882    0.3618    0.7500
  band No.  band energies     occupation 
      1       6.5689      2.00000
      2       7.0943      2.00001
      3       8.2446     -0.00499
      4      14.9964      0.00000
      5      17.4261      0.00000
      6      24.8334      0.00000
      7      31.0645      0.00000
      8      31.1165      0.00000
      9      32.9715      0.00000
     10      37.5552      0.00000
     11      42.1723      0.00000
     12      43.5631      0.00000

 k-point  79 :       0.3816    0.3684    0.7500
  band No.  band energies     occupation 
      1       6.5600      2.00000
      2       7.0858      2.00001
      3       8.2364     -0.00587
      4      15.2573      0.00000
      5      17.1501      0.00000
      6      24.8250      0.00000
      7      31.1860      0.00000
      8      31.3514      0.00000
      9      32.6914      0.00000
     10      37.4744      0.00000
     11      42.1536      0.00000
     12      43.5548      0.00000

 k-point  80 :       0.3750    0.3750    0.7500
  band No.  band energies     occupation 
      1       6.5570      2.00000
      2       7.0830      2.00001
      3       8.2337     -0.00620
      4      15.3632      0.00000
      5      17.0391      0.00000
      6      24.8222      0.00000
      7      31.2097      0.00000
      8      31.4795      0.00000
      9      32.5656      0.00000
     10      37.4470      0.00000
     11      42.1474      0.00000
     12      43.5521      0.00000

 k-point  81 :       0.3750    0.3750    0.7500
  band No.  band energies     occupation 
      1       6.5570      2.00000
      2       7.0830      2.00001
      3       8.2337     -0.00620
      4      15.3632      0.00000
      5      17.0391      0.00000
      6      24.8222      0.00000
      7      31.2097      0.00000
      8      31.4795      0.00000
      9      32.5656      0.00000
     10      37.4470      0.00000
     11      42.1474      0.00000
     12      43.5521      0.00000

 k-point  82 :       0.3553    0.3553    0.7105
  band No.  band energies     occupation 
      1       6.1552      2.00000
      2       6.9217      2.00000
      3       8.5459      0.00000
      4      15.7045      0.00000
      5      17.4472      0.00000
      6      26.3088      0.00000
      7      30.4389      0.00000
      8      30.5118      0.00000
      9      31.7545      0.00000
     10      36.5194      0.00000
     11      41.3163      0.00000
     12      42.7310      0.00000

 k-point  83 :       0.3355    0.3355    0.6711
  band No.  band energies     occupation 
      1       5.2187      2.00000
      2       7.3401      2.00787
      3       8.9655      0.00000
      4      16.0962      0.00000
      5      17.9006      0.00000
      6      27.7687      0.00000
      7      29.5789      0.00000
      8      29.6942      0.00000
      9      30.9684      0.00000
     10      35.6689      0.00000
     11      40.4871      0.00000
     12      41.9347      0.00000

 k-point  84 :       0.3158    0.3158    0.6316
  band No.  band energies     occupation 
      1       4.3176      2.00000
      2       7.8123      0.73636
      3       9.4494      0.00000
      4      16.5354      0.00000
      5      18.4018      0.00000
      6      28.6753      0.00000
      7      28.9650      0.00000
      8      29.1302      0.00000
      9      30.2085      0.00000
     10      34.9456      0.00000
     11      39.6802      0.00000
     12      41.2096      0.00000

 k-point  85 :       0.2961    0.2961    0.5921
  band No.  band energies     occupation 
      1       3.4614      2.00000
      2       8.3383     -0.00058
      3       9.9889      0.00000
      4      17.0273      0.00000
      5      18.9477      0.00000
      6      27.8282      0.00000
      7      28.2927      0.00000
      8      29.4911      0.00000
      9      30.2062      0.00000
     10      34.4706      0.00000
     11      38.9065      0.00000
     12      40.6213      0.00000

 k-point  86 :       0.2763    0.2763    0.5526
  band No.  band energies     occupation 
      1       2.6530      2.00000
      2       8.9186      0.00000
      3      10.5804      0.00000
      4      17.5704      0.00000
      5      19.5393      0.00000
      6      27.0293      0.00000
      7      27.6654      0.00000
      8      28.8143      0.00000
      9      30.7303      0.00000
     10      34.4264      0.00000
     11      38.1712      0.00000
     12      40.2843      0.00000

 k-point  87 :       0.2566    0.2566    0.5132
  band No.  band energies     occupation 
      1       1.8955      2.00000
      2       9.5528      0.00000
      3      11.2213      0.00000
      4      18.1630      0.00000
      5      20.1734      0.00000
      6      26.2804      0.00000
      7      27.0751      0.00000
      8      28.1785      0.00000
      9      30.6201      0.00000
     10      34.6692      0.00000
     11      37.4738      0.00000
     12      40.3931      0.00000

 k-point  88 :       0.2368    0.2368    0.4737
  band No.  band energies     occupation 
      1       1.1893      2.00000
      2      10.2412      0.00000
      3      11.9091      0.00000
      4      18.8046      0.00000
      5      20.8483      0.00000
      6      25.5833      0.00000
      7      26.5274      0.00000
      8      27.5861      0.00000
      9      30.1633      0.00000
     10      34.7549      0.00000
     11      36.8129      0.00000
     12      41.0957      0.00000

 k-point  89 :       0.2171    0.2171    0.4342
  band No.  band energies     occupation 
      1       0.5367      2.00000
      2      10.9832      0.00000
      3      12.6408      0.00000
      4      19.4921      0.00000
      5      21.5588      0.00000
      6      24.9239      0.00000
      7      26.0209      0.00000
      8      27.0350      0.00000
      9      29.5847      0.00000
     10      34.5581      0.00000
     11      36.1814      0.00000
     12      42.3923      0.00000

 k-point  90 :       0.1974    0.1974    0.3947
  band No.  band energies     occupation 
      1      -0.0621      2.00000
      2      11.7796      0.00000
      3      13.4142      0.00000
      4      20.2307      0.00000
      5      22.3053      0.00000
      6      24.3337      0.00000
      7      25.5672      0.00000
      8      26.5327      0.00000
      9      28.9840      0.00000
     10      34.1685      0.00000
     11      35.5643      0.00000
     12      40.8116      0.00000

 k-point  91 :       0.1776    0.1776    0.3553
  band No.  band energies     occupation 
      1      -0.6061      2.00000
      2      12.6296      0.00000
      3      14.2259      0.00000
      4      21.0145      0.00000
      5      23.0809      0.00000
      6      23.7980      0.00000
      7      25.1617      0.00000
      8      26.0758      0.00000
      9      28.3858      0.00000
     10      33.6956      0.00000
     11      34.9285      0.00000
     12      39.0628      0.00000

 k-point  92 :       0.1579    0.1579    0.3158
  band No.  band energies     occupation 
      1      -1.0948      2.00000
      2      13.5329      0.00000
      3      15.0712      0.00000
      4      21.8371      0.00000
      5      23.3176      0.00000
      6      23.8788      0.00000
      7      24.8091      0.00000
      8      25.6644      0.00000
      9      27.7950      0.00000
     10      33.1877      0.00000
     11      34.2030      0.00000
     12      37.5071      0.00000

 k-point  93 :       0.1382    0.1382    0.2763
  band No.  band energies     occupation 
      1      -1.5275      2.00000
      2      14.4883      0.00000
      3      15.9453      0.00000
      4      22.6794      0.00000
      5      22.8929      0.00000
      6      24.5263      0.00000
      7      24.6897      0.00000
      8      25.2982      0.00000
      9      27.2171      0.00000
     10      32.6876      0.00000
     11      33.2689      0.00000
     12      36.2686      0.00000

 k-point  94 :       0.1184    0.1184    0.2368
  band No.  band energies     occupation 
      1      -1.9037      2.00000
      2      15.4913      0.00000
      3      16.8412      0.00000
      4      22.5241      0.00000
      5      23.4392      0.00000
      6      24.4110      0.00000
      7      24.9753      0.00000
      8      25.4925      0.00000
      9      26.6536      0.00000
     10      32.0482      0.00000
     11      32.2170      0.00000
     12      35.4170      0.00000

 k-point  95 :       0.0987    0.0987    0.1974
  band No.  band energies     occupation 
      1      -2.2228      2.00000
      2      16.5451      0.00000
      3      17.7519      0.00000
      4      22.2118      0.00000
      5      23.6944      0.00000
      6      24.6962      0.00000
      7      24.8780      0.00000
      8      25.9702      0.00000
      9      26.4100      0.00000
     10      30.6644      0.00000
     11      31.8164      0.00000
     12      34.8671      0.00000

 k-point  96 :       0.0789    0.0789    0.1579
  band No.  band energies     occupation 
      1      -2.4846      2.00000
      2      17.6368      0.00000
      3      18.6604      0.00000
      4      21.9547      0.00000
      5      23.6004      0.00000
      6      24.4504      0.00000
      7      25.4313      0.00000
      8      25.7538      0.00000
      9      27.1051      0.00000
     10      29.2185      0.00000
     11      31.4884      0.00000
     12      34.4952      0.00000

 k-point  97 :       0.0592    0.0592    0.1184
  band No.  band energies     occupation 
      1      -2.6884      2.00000
      2      18.7624      0.00000
      3      19.5571      0.00000
      4      21.7555      0.00000
      5      23.4801      0.00000
      6      24.2256      0.00000
      7      24.8243      0.00000
      8      26.6972      0.00000
      9      27.7643      0.00000
     10      27.8312      0.00000
     11      31.3003      0.00000
     12      34.2402      0.00000

 k-point  98 :       0.0395    0.0395    0.0789
  band No.  band energies     occupation 
      1      -2.8342      2.00000
      2      19.8915      0.00000
      3      20.4121      0.00000
      4      21.6154      0.00000
      5      23.3860      0.00000
      6      23.9782      0.00000
      7      24.1977      0.00000
      8      26.5902      0.00000
      9      27.6257      0.00000
     10      28.2799      0.00000
     11      31.2928      0.00000
     12      34.0711      0.00000

 k-point  99 :       0.0197    0.0197    0.0395
  band No.  band energies     occupation 
      1      -2.9216      2.00000
      2      20.9460      0.00000
      3      21.1500      0.00000
      4      21.5308      0.00000
      5      23.3278      0.00000
      6      23.6111      0.00000
      7      23.6189      0.00000
      8      25.6887      0.00000
      9      28.3765      0.00000
     10      28.5814      0.00000
     11      31.4416      0.00000
     12      33.9741      0.00000

 k-point 100 :       0.0000    0.0000    0.0000
  band No.  band energies     occupation 
      1      -2.9508      2.00000
      2      21.5023      0.00000
      3      21.5023      0.00000
      4      21.5023      0.00000
      5      23.3078      0.00000
      6      23.3078      0.00000
      7      23.3079      0.00000
      8      25.3692      0.00000
      9      28.6708      0.00000
     10      28.6708      0.00000
     11      31.5495      0.00000
     12      33.9421      0.00000


--------------------------------------------------------------------------------------------------------


 soft charge-density along one line, spin component           1
         0         1         2         3         4         5         6         7         8         9
 total charge-density along one line
 
 pseudopotential strength for first ion, spin component:           1
  8.429  -0.007   0.000   0.000   0.000   0.000   0.000   0.000
 -0.007   0.000   0.000   0.000   0.000   0.000   0.000   0.000
  0.000   0.000   1.991   0.000   0.000  -0.028   0.000   0.000
  0.000   0.000   0.000   1.991   0.000   0.000  -0.028   0.000
  0.000   0.000   0.000   0.000   1.991   0.000   0.000  -0.028
  0.000   0.000  -0.028   0.000   0.000  -0.011   0.000   0.000
  0.000   0.000   0.000  -0.028   0.000   0.000  -0.011   0.000
  0.000   0.000   0.000   0.000  -0.028   0.000   0.000  -0.011
 total augmentation occupancy for first ion, spin component:           1
  2.000   0.000   0.000   0.000   0.000   0.000   0.000   0.000
  0.000   0.000   0.000   0.000   0.000   0.000   0.000   0.000
  0.000   0.000   0.333   0.000   0.000   0.000   0.000   0.000
  0.000   0.000   0.000   0.333   0.000   0.000   0.000   0.000
  0.000   0.000   0.000   0.000   0.333   0.000   0.000   0.000
  0.000   0.000   0.000   0.000   0.000   0.000   0.000   0.000
  0.000   0.000   0.000   0.000   0.000   0.000   0.000   0.000
  0.000   0.000   0.000   0.000   0.000   0.000   0.000   0.000


------------------------ aborting loop because EDIFF is reached ----------------------------------------


    CHARGE:  cpu time    1.20: real time    0.04
    FORLOC:  cpu time    0.02: real time    0.00
    FORNL :  cpu time    1.12: real time    0.04
    STRESS:  cpu time    4.27: real time    0.14
    FORCOR:  cpu time    0.73: real time    0.02
    FORHAR:  cpu time    0.19: real time    0.01

  FORCE on cell =-STRESS in cart. coord.  units (eV):
  Direction    XX          YY          ZZ          XY          YZ          ZX
  --------------------------------------------------------------------------------------
  Alpha Z    -0.21391    -0.21391    -0.21391
  Ewald     -24.91360   -24.91360   -24.91360     0.00000     0.00000     0.00000
  Hartree     0.05118     0.05118     0.05118     0.00000     0.00000     0.00000
  E(xc)      -8.66377    -8.66377    -8.66377     0.00001     0.00001     0.00001
  Local       0.77241     0.77241     0.77241     0.00000     0.00000     0.00000
  n-local    16.87859    17.64979    19.40750     0.01955    -0.32599    -0.30748
  augment    -0.75049    -0.75049    -0.75049     0.00000     0.00000     0.00000
  Kinetic    11.22151    17.54539    16.70763     9.58393     3.67912     4.63023
  Fock        0.00000     0.00000     0.00000     0.00000     0.00000     0.00000
  -------------------------------------------------------------------------------------
  Total      -0.58138    -0.58138    -0.58138     0.00000     0.00000     0.00000
  in kB     -59.32249   -59.32249   -59.32249     0.00000     0.00000     0.00000
  external pressure =      -59.32 kB  Pullay stress =        0.00 kB


 VOLUME and BASIS-vectors are now :
 -----------------------------------------------------------------------------
  energy-cutoff  :      250.00
  volume of cell :       15.70
      direct lattice vectors                 reciprocal lattice vectors
     0.000000000  1.987500000  1.987500000    -0.251572327  0.251572327  0.251572327
     1.987500000  0.000000000  1.987500000     0.251572327 -0.251572327  0.251572327
     1.987500000  1.987500000  0.000000000     0.251572327  0.251572327 -0.251572327

  length of vectors
     2.810749455  2.810749455  2.810749455     0.435736052  0.435736052  0.435736052


 FORCES acting on ions
    electron-ion (+dipol)            ewald-force                    non-local-force                 convergence-correction
 -----------------------------------------------------------------------------------------------
   -.268E-14 0.130E-14 0.133E-14   0.125E-15 0.427E-16 -.332E-15   0.993E-23 0.331E-23 0.993E-23   -.328E-17 0.316E-17 0.796E-18
 -----------------------------------------------------------------------------------------------
   -.268E-14 0.130E-14 0.133E-14   0.125E-15 0.427E-16 -.332E-15   0.993E-23 0.331E-23 0.993E-23   -.328E-17 0.316E-17 0.796E-18
 
 
 POSITION                                       TOTAL-FORCE (eV/Angst)
 -----------------------------------------------------------------------------------
      0.00000      0.00000      0.00000         0.000000      0.000000      0.000000
 -----------------------------------------------------------------------------------
    total drift:                                0.000000      0.000000      0.000000


--------------------------------------------------------------------------------------------------------



  FREE ENERGIE OF THE ION-ELECTRON SYSTEM (eV)
  ---------------------------------------------------
  free  energy   TOTEN  =        -4.34888279 eV

  energy  without entropy=       -4.34916675  energy(sigma->0) =       -4.34897745
 


--------------------------------------------------------------------------------------------------------


    POTLOK:  cpu time    0.86: real time    0.03


--------------------------------------------------------------------------------------------------------


 stress matrix after NEB project (eV)
     -0.58138      0.00000      0.00000
      0.00000     -0.58138      0.00000
      0.00000      0.00000     -0.58138
  FORCES: max atom, RMS     0.000000    0.000000
  FORCE total and by dimension    0.000000    0.000000
  Stress total and by dimension    1.006980    0.581380
 writing wavefunctions
     LOOP+:  cpu time  326.71: real time   10.58
    4ORBIT:  cpu time    0.00: real time    0.00

 total amount of memory used by VASP on root node    36014. kBytes
========================================================================

   base      :      30000. kBytes
   nonl-proj :        962. kBytes
   fftplans  :        800. kBytes
   grid      :       1216. kBytes
   one-center:          3. kBytes
   wavefun   :       3033. kBytes
 
  
  
 General timing and accounting informations for this job:
 ========================================================
  
                  Total CPU time used (sec):      338.211
                            User time (sec):      282.432
                          System time (sec):       55.779
                         Elapsed time (sec):       10.979
  
                   Maximum memory used (kb):       38980.
                   Average memory used (kb):           0.
  
                          Minor page faults:         6336
                          Major page faults:            0
                 Voluntary context switches:          626
