 vasp.5.4.1 06Nov2015 (build Apr 24 2014 20:13:14) complex standard
 Contain Constrained Minimization Technique (TS), Periodic NBO, VASPsol, libbeef, VASP2WANNIER90, Constrained Cell Relaxation
 executed on Dell of Center for Computational Chemistry by @node51 date 2019.04.08 16:13:16
 running on   32 total cores
 distrk:  each k-point on   32 cores,    1 groups
 distr:  one band on NCORES_PER_BAND=   1 cores,   32 groups


--------------------------------------------------------------------------------------------------------


 INCAR:
 POTCAR:   PAW_PBE H 15Jun2001                    
 POTCAR:   PAW_PBE C 08Apr2002                    
 POTCAR:   PAW_PBE N 08Apr2002                    
 POTCAR:   PAW_PBE F 08Apr2002                    

 ----------------------------------------------------------------------------- 
|                                                                             |
|           W    W    AA    RRRRR   N    N  II  N    N   GGGG   !!!           |
|           W    W   A  A   R    R  NN   N  II  NN   N  G    G  !!!           |
|           W    W  A    A  R    R  N N  N  II  N N  N  G       !!!           |
|           W WW W  AAAAAA  RRRRR   N  N N  II  N  N N  G  GGG   !            |
|           WW  WW  A    A  R   R   N   NN  II  N   NN  G    G                |
|           W    W  A    A  R    R  N    N  II  N    N   GGGG   !!!           |
|                                                                             |
|      For optimal performance we recommend to set                            |
|        NCORE= 4 - approx SQRT( number of cores)                             |
|      NCORE specifies how many cores store one orbital (NPAR=cpu/NCORE).     |
|      This setting can  greatly improve the performance of VASP for DFT.     |
|      The default, NPAR=number of cores might be grossly inefficient         |
|      on modern multi-core architectures or massively parallel machines.     |
|      Do your own testing !!!!                                               |
|      Unfortunately you need to use the default for GW and RPA calculations. |
|      (for HF NCORE is supported but not extensively tested yet)             |
|                                                                             |
 ----------------------------------------------------------------------------- 

 POTCAR:   PAW_PBE H 15Jun2001                    
   VRHFIN =H: ultrasoft test                                                    
   LEXCH  = PE                                                                  
   EATOM  =    12.4884 eV,     .9179 Ry                                         
                                                                                
   TITEL  = PAW_PBE H 15Jun2001                                                 
   LULTRA =        F    use ultrasoft PP ?                                      
   IUNSCR =        0    unscreen: 0-lin 1-nonlin 2-no                           
   RPACOR =     .000    partial core radius                                     
   POMASS =    1.000; ZVAL   =    1.000    mass and valenz                      
   RCORE  =    1.100    outmost cutoff radius                                   
   RWIGS  =     .700; RWIGS  =     .370    wigner-seitz radius (au A)           
   ENMAX  =  250.000; ENMIN  =  200.000 eV                                      
   RCLOC  =     .701    cutoff for local pot                                    
   LCOR   =        T    correct aug charges                                     
   LPAW   =        T    paw PP                                                  
   EAUG   =  400.000                                                            
   RMAX   =    2.174    core radius for proj-oper                               
   RAUG   =    1.200    factor for augmentation sphere                          
   RDEP   =    1.112    radius for radial grids                                 
   QCUT   =   -5.749; QGAM   =   11.498    optimization parameters              
                                                                                
   Description                                                                  
     l     E      TYP  RCUT    TYP  RCUT                                        
     0   .000     23  1.100                                                     
     0   .500     23  1.100                                                     
     1  -.300     23  1.100                                                     
  local pseudopotential read in
  atomic valenz-charges read in
  non local Contribution for L=           0  read in
    real space projection operators read in
  non local Contribution for L=           0  read in
    real space projection operators read in
  non local Contribution for L=           1  read in
    real space projection operators read in
    PAW grid and wavefunctions read in
 
   number of l-projection  operators is LMAX  =           3
   number of lm-projection operators is LMMAX =           5
 
 POTCAR:   PAW_PBE C 08Apr2002                    
   VRHFIN =C: s2p2                                                              
   LEXCH  = PE                                                                  
   EATOM  =   147.1560 eV,   10.8157 Ry                                         
                                                                                
   TITEL  = PAW_PBE C 08Apr2002                                                 
   LULTRA =        F    use ultrasoft PP ?                                      
   IUNSCR =        0    unscreen: 0-lin 1-nonlin 2-no                           
   RPACOR =     .000    partial core radius                                     
   POMASS =   12.011; ZVAL   =    4.000    mass and valenz                      
   RCORE  =    1.500    outmost cutoff radius                                   
   RWIGS  =    1.630; RWIGS  =     .863    wigner-seitz radius (au A)           
   ENMAX  =  400.000; ENMIN  =  300.000 eV                                      
   ICORE  =        2    local potential                                         
   LCOR   =        T    correct aug charges                                     
   LPAW   =        T    paw PP                                                  
   EAUG   =  644.873                                                            
   DEXC   =     .000                                                            
   RMAX   =    2.266    core radius for proj-oper                               
   RAUG   =    1.300    factor for augmentation sphere                          
   RDEP   =    1.501    radius for radial grids                                 
   RDEPT  =    1.300    core radius for aug-charge                              
   QCUT   =   -5.516; QGAM   =   11.032    optimization parameters              
                                                                                
   Description                                                                  
     l     E      TYP  RCUT    TYP  RCUT                                        
     0   .000     23  1.200                                                     
     0   .000     23  1.200                                                     
     1   .000     23  1.500                                                     
     1  2.500     23  1.500                                                     
     2   .000      7  1.500                                                     
  local pseudopotential read in
  atomic valenz-charges read in
  non local Contribution for L=           0  read in
    real space projection operators read in
  non local Contribution for L=           0  read in
    real space projection operators read in
  non local Contribution for L=           1  read in
    real space projection operators read in
  non local Contribution for L=           1  read in
    real space projection operators read in
    PAW grid and wavefunctions read in
 
   number of l-projection  operators is LMAX  =           4
   number of lm-projection operators is LMMAX =           8
 
 POTCAR:   PAW_PBE N 08Apr2002                    
   VRHFIN =N: s2p3                                                              
   LEXCH  = PE                                                                  
   EATOM  =   264.5486 eV,   19.4438 Ry                                         
                                                                                
   TITEL  = PAW_PBE N 08Apr2002                                                 
   LULTRA =        F    use ultrasoft PP ?                                      
   IUNSCR =        0    unscreen: 0-lin 1-nonlin 2-no                           
   RPACOR =     .000    partial core radius                                     
   POMASS =   14.001; ZVAL   =    5.000    mass and valenz                      
   RCORE  =    1.500    outmost cutoff radius                                   
   RWIGS  =    1.400; RWIGS  =     .741    wigner-seitz radius (au A)           
   ENMAX  =  400.000; ENMIN  =  300.000 eV                                      
   ICORE  =        2    local potential                                         
   LCOR   =        T    correct aug charges                                     
   LPAW   =        T    paw PP                                                  
   EAUG   =  627.112                                                            
   DEXC   =     .000                                                            
   RMAX   =    2.247    core radius for proj-oper                               
   RAUG   =    1.300    factor for augmentation sphere                          
   RDEP   =    1.514    radius for radial grids                                 
   QCUT   =   -5.562; QGAM   =   11.124    optimization parameters              
                                                                                
   Description                                                                  
     l     E      TYP  RCUT    TYP  RCUT                                        
     0   .000     23  1.200                                                     
     0   .000     23  1.200                                                     
     1   .000     23  1.500                                                     
     1   .700     23  1.500                                                     
     2   .000      7  1.500                                                     
  local pseudopotential read in
  atomic valenz-charges read in
  non local Contribution for L=           0  read in
    real space projection operators read in
  non local Contribution for L=           0  read in
    real space projection operators read in
  non local Contribution for L=           1  read in
    real space projection operators read in
  non local Contribution for L=           1  read in
    real space projection operators read in
    PAW grid and wavefunctions read in
 
   number of l-projection  operators is LMAX  =           4
   number of lm-projection operators is LMMAX =           8
 
 POTCAR:   PAW_PBE F 08Apr2002                    
   VRHFIN =F: s2p5                                                              
   LEXCH  = PE                                                                  
   EATOM  =   659.4942 eV,   48.4715 Ry                                         
                                                                                
   TITEL  = PAW_PBE F 08Apr2002                                                 
   LULTRA =        F    use ultrasoft PP ?                                      
   IUNSCR =        0    unscreen: 0-lin 1-nonlin 2-no                           
   RPACOR =     .000    partial core radius                                     
   POMASS =   18.998; ZVAL   =    7.000    mass and valenz                      
   RCORE  =    1.520    outmost cutoff radius                                   
   RWIGS  =    1.500; RWIGS  =     .794    wigner-seitz radius (au A)           
   ENMAX  =  400.000; ENMIN  =  300.000 eV                                      
   ICORE  =        2    local potential                                         
   LCOR   =        T    correct aug charges                                     
   LPAW   =        T    paw PP                                                  
   EAUG   =  613.614                                                            
   DEXC   =     .000                                                            
   RMAX   =    2.254    core radius for proj-oper                               
   RAUG   =    1.300    factor for augmentation sphere                          
   RDEP   =    1.539    radius for radial grids                                 
   QCUT   =   -5.545; QGAM   =   11.091    optimization parameters              
                                                                                
   Description                                                                  
     l     E      TYP  RCUT    TYP  RCUT                                        
     0   .000     23  1.200                                                     
     0  -.700     23  1.200                                                     
     1   .000     23  1.520                                                     
     1   .100     23  1.520                                                     
     2   .000      7  1.500                                                     
  local pseudopotential read in
  atomic valenz-charges read in
  non local Contribution for L=           0  read in
    real space projection operators read in
  non local Contribution for L=           0  read in
    real space projection operators read in
  non local Contribution for L=           1  read in
    real space projection operators read in
  non local Contribution for L=           1  read in
    real space projection operators read in
    PAW grid and wavefunctions read in
 
   number of l-projection  operators is LMAX  =           4
   number of lm-projection operators is LMMAX =           8
 
 Optimization of the real space projectors (new method)

 maximal supplied QI-value         = 34.20
 optimisation between [QCUT,QGAM] = [  9.92, 20.18] = [ 27.55,114.04] Ry 
 Optimized for a Real-space Cutoff    1.26 Angstroem

   l    n(q)    QCUT    max X(q) W(low)/X(q) W(high)/X(q)  e(spline) 
   0      8     9.919     4.436    0.80E-04    0.66E-04    0.52E-07
   0      8     9.919    16.131    0.48E-03    0.23E-03    0.28E-06
   1      7     9.919     4.654    0.17E-03    0.75E-03    0.30E-06
 Optimization of the real space projectors (new method)

 maximal supplied QI-value         = 25.13
 optimisation between [QCUT,QGAM] = [ 10.05, 20.36] = [ 28.30,116.06] Ry 
 Optimized for a Real-space Cutoff    1.30 Angstroem

   l    n(q)    QCUT    max X(q) W(low)/X(q) W(high)/X(q)  e(spline) 
   0      8    10.053     5.582    0.43E-04    0.44E-04    0.61E-07
   0      8    10.053    69.432    0.49E-03    0.71E-03    0.18E-06
   1      7    10.053     2.780    0.78E-04    0.13E-03    0.11E-06
   1      7    10.053     4.549    0.23E-03    0.19E-03    0.20E-06
 Optimization of the real space projectors (new method)

 maximal supplied QI-value         = 25.13
 optimisation between [QCUT,QGAM] = [ 10.05, 20.36] = [ 28.30,116.06] Ry 
 Optimized for a Real-space Cutoff    1.65 Angstroem

   l    n(q)    QCUT    max X(q) W(low)/X(q) W(high)/X(q)  e(spline) 
   0     10    10.053     4.511    0.24E-04    0.33E-05    0.17E-06
   0     10    10.053    37.799    0.76E-04    0.72E-04    0.55E-06
   1     10    10.053     2.478    0.11E-04    0.27E-04    0.17E-06
   1     10    10.053     4.765    0.27E-03    0.10E-02    0.45E-05
 Optimization of the real space projectors (new method)

 maximal supplied QI-value         = 24.76
 optimisation between [QCUT,QGAM] = [ 10.15, 20.30] = [ 28.85,115.39] Ry 
 Optimized for a Real-space Cutoff    1.30 Angstroem

   l    n(q)    QCUT    max X(q) W(low)/X(q) W(high)/X(q)  e(spline) 
   0      8    10.150     4.906    0.91E-04    0.11E-03    0.11E-06
   0      8    10.150     5.365    0.42E-03    0.60E-03    0.22E-06
   1      7    10.150     2.511    0.99E-04    0.66E-04    0.44E-07
   1      7    10.150     3.801    0.45E-03    0.47E-03    0.16E-06
 PAW_PBE H 15Jun2001                    :
 energy of atom  1       EATOM=  -12.4884
 kinetic energy error for atom=    0.0098 (will be added to EATOM!!)
 PAW_PBE C 08Apr2002                    :
 energy of atom  2       EATOM= -147.1560
 kinetic energy error for atom=    0.0288 (will be added to EATOM!!)
 PAW_PBE N 08Apr2002                    :
 energy of atom  3       EATOM= -264.5486
 kinetic energy error for atom=    0.0736 (will be added to EATOM!!)
 PAW_PBE F 08Apr2002                    :
 energy of atom  4       EATOM= -659.4942
 kinetic energy error for atom=    0.1980 (will be added to EATOM!!)
 
 
 POSCAR: AutoCreatByScript: H C N F              
  positions in direct lattice
  velocities in cartesian coordinates
 exchange correlation table for  LEXCH =        8
   RHO(1)=    0.500       N(1)  =     2000
   RHO(2)=  100.500       N(2)  =     4000
 


--------------------------------------------------------------------------------------------------------


 ion  position               nearest neighbor table
   1  0.542  0.365  0.145-  62 1.09
   2  0.814  0.430  0.144-  63 1.10
   3  0.470  0.685  0.148-  77 1.11
   4  0.868  0.537  0.157-  63 1.10
   5  0.117  0.613  0.161-  79 1.10
   6  0.309  0.369  0.176-  64 1.09
   7  0.433  0.361  0.178-  65 1.09
   8  0.196  0.413  0.178-  66 1.09
   9  0.116  0.483  0.182-  69 1.09
  10  0.204  0.707  0.181-  79 1.10
  11  0.578  0.621  0.191-  74 1.09
  12  0.334  0.714  0.196-  78 1.09
  13  0.842  0.471  0.226-  63 1.10
  14  0.469  0.682  0.236-  77 1.10
  15  0.146  0.639  0.246-  79 1.10
  16  0.829  0.780  0.261-  82 1.10
  17  0.849  0.726  0.325-  82 1.10
  18  0.758  0.731  0.327-  82 1.10
  19  0.036  0.595  0.989-  94 1.34 148 1.35  93 1.47
  20  0.653  0.463  0.991- 142 1.34 112 1.35  91 1.49
  21  0.786  0.597  0.994- 113 1.34 144 1.35  91 1.47
  22  0.654  0.598  0.995-  95 1.33  96 1.35  91 1.47
  23  0.403  0.209  0.997- 101 1.34 155 1.35 150 1.48
  24  0.904  0.460  0.997-  90 1.34 105 1.34  93 1.48
  25  0.903  0.594  0.999- 144 1.34 124 1.35  93 1.49
  26  0.035  0.094  0.001- 114 1.33 147 1.35  98 1.47
  27  0.152  0.346  0.001- 115 1.34 152 1.35 154 1.47
  28  0.152  0.213  0.002- 122 1.35 147 1.35 154 1.47
  29  0.152  0.714  0.002- 148 1.34 118 1.35 100 1.48
  30  0.286  0.846  0.003- 119 1.34 145 1.35 100 1.46
  31  0.654  0.346  0.004-  89 1.34 112 1.35 107 1.47
  32  0.653  0.963  0.006- 129 1.35 146 1.35 103 1.47
  33  0.903  0.093  0.006- 127 1.34 149 1.35  98 1.48
  34  0.786  0.095  0.007- 121 1.34 149 1.35 103 1.46
  35  0.903  0.959  0.007- 109 1.33 102 1.35  98 1.47
  36  0.402  0.593  0.009- 120 1.34 151 1.35 110 1.48
  37  0.654  0.096  0.009- 123 1.34  92 1.35 103 1.46
  38  0.403  0.460  0.010- 104 1.33 106 1.35 110 1.47
  39  0.153  0.847  0.010- 117 1.33  99 1.35 100 1.47
  40  0.154  0.597  0.010-  94 1.33 118 1.35 111 1.46
  41  0.286  0.596  0.013-  97 1.33 120 1.34 111 1.46
  42  0.785  0.345  0.013-  90 1.34 134 1.35 107 1.45
  43  0.652  0.213  0.014- 132 1.34  92 1.35 107 1.47
  44  0.153  0.463  0.014- 135 1.35 152 1.35 111 1.47
  45  0.535  0.594  0.016-  95 1.33 133 1.35 110 1.46
  46  0.652  0.712  0.022-  96 1.34 133 1.35 125 1.48
  47  0.652  0.846  0.024- 108 1.33 129 1.35 125 1.47
  48  0.153  0.097  0.025- 114 1.33 122 1.35 126 1.47
  49  0.903  0.709  0.025- 113 1.34 124 1.35 131 1.48
  50  0.403  0.094  0.026- 155 1.34 136 1.35 128 1.49
  51  0.404  0.960  0.026- 119 1.34 116 1.34 128 1.48
  52  0.902  0.344  0.027- 105 1.34 134 1.35 130 1.49
  53  0.286  0.096  0.027- 101 1.34 136 1.35 126 1.47
  54  0.152  0.964  0.028-  99 1.35 138 1.35 126 1.48
  55  0.902  0.843  0.030- 102 1.34 137 1.35 131 1.49
  56  0.785  0.845  0.031- 109 1.33 137 1.35 125 1.47
  57  0.903  0.210  0.031- 121 1.34 127 1.35 130 1.48
  58  0.037  0.345  0.031- 115 1.33 135 1.35 130 1.48
  59  0.537  0.095  0.032- 123 1.34 132 1.34 128 1.47
  60  0.036  0.844  0.036- 117 1.33 138 1.35 131 1.47
  61  0.668  0.416  0.166- 156 1.37  67 1.38  62 1.41
  62  0.595  0.418  0.165-   1 1.09  72 1.40  61 1.41
  63  0.821  0.479  0.177-   2 1.10   4 1.10  13 1.10  67 1.50
  64  0.368  0.425  0.180-   6 1.09  65 1.39  68 1.40
  65  0.438  0.420  0.180-   7 1.09  64 1.39  70 1.41
  66  0.227  0.478  0.183-   8 1.09  69 1.39  71 1.40
  67  0.743  0.479  0.184-  61 1.38  80 1.42  63 1.50
  68  0.373  0.500  0.184-  64 1.40  73 1.41  71 1.46
  69  0.182  0.518  0.185-   9 1.09  66 1.39  75 1.41
  70  0.516  0.490  0.185-  65 1.41  74 1.41  72 1.48
  71  0.311  0.524  0.186-  66 1.40  76 1.41  68 1.46
  72  0.590  0.485  0.187-  62 1.40  81 1.43  70 1.48
  73  0.450  0.571  0.188-  74 1.39  68 1.41  77 1.51
  74  0.520  0.566  0.189-  11 1.09  73 1.39  70 1.41
  75  0.220  0.602  0.191-  78 1.41  69 1.41  79 1.51
  76  0.350  0.609  0.191-  78 1.39  71 1.41  77 1.51
  77  0.440  0.645  0.191-  14 1.10   3 1.11  73 1.51  76 1.51
  78  0.305  0.648  0.193-  12 1.09  76 1.39  75 1.41
  79  0.169  0.643  0.195-  10 1.10   5 1.10  15 1.10  75 1.51
  80  0.738  0.546  0.209- 139 1.36  67 1.42  81 1.43
  81  0.665  0.549  0.212- 140 1.36  80 1.43  72 1.43
  82  0.802  0.728  0.295-  18 1.10  17 1.10  16 1.10 141 1.45
  83  0.536  0.344  0.983-  89 1.33 142 1.35 150 1.48
  84  0.402  0.342  0.990- 106 1.34 143 1.35 150 1.49
  85  0.285  0.344  0.992- 104 1.33 143 1.35 154 1.47
  86  0.404  0.711  0.992-  97 1.33 151 1.35 153 1.48
  87  0.537  0.845  0.995- 108 1.34 146 1.35 153 1.47
  88  0.403  0.845  0.997- 116 1.34 145 1.35 153 1.48
  89  0.575  0.303  0.990-  83 1.33  31 1.34
  90  0.824  0.420  0.990-  24 1.34  42 1.34
  91  0.698  0.553  0.990-  21 1.47  22 1.47  20 1.49
  92  0.691  0.174  0.991-  37 1.35  43 1.35
  93  0.948  0.549  0.992-  19 1.47  24 1.48  25 1.49
  94  0.076  0.554  0.993-  40 1.33  19 1.34
  95  0.573  0.556  0.996-  45 1.33  22 1.33
  96  0.694  0.679  0.997-  46 1.34  22 1.35
  97  0.323  0.674  0.998-  86 1.33  41 1.33
  98  0.947  0.048  0.002-  26 1.47  35 1.47  33 1.48
  99  0.192  0.928  0.002-  54 1.35  39 1.35
 100  0.197  0.803  0.003-  30 1.46  39 1.47  29 1.48
 101  0.323  0.172  0.005-  53 1.34  23 1.34
 102  0.942  0.918  0.005-  55 1.34  35 1.35
 103  0.698  0.052  0.005-  34 1.46  37 1.46  32 1.47
 104  0.323  0.422  0.007-  85 1.33  38 1.33
 105  0.945  0.422  0.009-  52 1.34  24 1.34
 106  0.443  0.419  0.012-  84 1.34  38 1.35
 107  0.697  0.302  0.011-  42 1.45  31 1.47  43 1.47
 108  0.573  0.804  0.012-  47 1.33  87 1.34
 109  0.822  0.922  0.012-  35 1.33  56 1.33
 110  0.447  0.549  0.013-  45 1.46  38 1.47  36 1.48
 111  0.198  0.552  0.013-  41 1.46  40 1.46  44 1.47
 112  0.693  0.427  0.014-  20 1.35  31 1.35
 113  0.824  0.674  0.014-  49 1.34  21 1.34
 114  0.073  0.054  0.018-  26 1.33  48 1.33
 115  0.075  0.304  0.019-  58 1.33  27 1.34
 116  0.444  0.920  0.021-  88 1.34  51 1.34
 117  0.074  0.804  0.022-  60 1.33  39 1.33
 118  0.191  0.676  0.025-  29 1.35  40 1.35
 119  0.323  0.922  0.026-  51 1.34  30 1.34
 120  0.325  0.556  0.028-  36 1.34  41 1.34
 121  0.823  0.172  0.028-  57 1.34  34 1.34
 122  0.193  0.179  0.029-  48 1.35  28 1.35
 123  0.577  0.054  0.029-  59 1.34  37 1.34
 124  0.942  0.667  0.028-  25 1.35  49 1.35
 125  0.696  0.801  0.029-  56 1.47  47 1.47  46 1.48
 126  0.197  0.053  0.031-  53 1.47  48 1.47  54 1.48
 127  0.944  0.169  0.031-  33 1.34  57 1.35
 128  0.448  0.049  0.032-  59 1.47  51 1.48  50 1.49
 129  0.691  0.927  0.033-  47 1.35  32 1.35
 130  0.948  0.300  0.034-  57 1.48  58 1.48  52 1.49
 131  0.947  0.798  0.034-  60 1.47  49 1.48  55 1.49
 132  0.576  0.176  0.037-  43 1.34  59 1.34
 133  0.573  0.671  0.039-  46 1.35  45 1.35
 134  0.822  0.306  0.039-  52 1.35  42 1.35
 135  0.078  0.426  0.041-  58 1.35  44 1.35
 136  0.326  0.059  0.048-  50 1.35  53 1.35
 137  0.824  0.806  0.051-  55 1.35  56 1.35
 138  0.076  0.924  0.051-  54 1.35  60 1.35
 139  0.799  0.614  0.238- 141 1.33  80 1.36
 140  0.682  0.619  0.244- 141 1.33  81 1.36
 141  0.760  0.653  0.258- 140 1.33 139 1.33  82 1.45
 142  0.575  0.424  0.972-  20 1.34  83 1.35
 143  0.323  0.304  0.973-  84 1.35  85 1.35
 144  0.827  0.559  0.976-  25 1.34  21 1.35
 145  0.324  0.809  0.979-  88 1.35  30 1.35
 146  0.578  0.925  0.980-  87 1.35  32 1.35
 147  0.074  0.171  0.981-  26 1.35  28 1.35
 148  0.075  0.675  0.982-  29 1.34  19 1.35
 149  0.825  0.057  0.986-  33 1.35  34 1.35
 150  0.447  0.298  0.987-  83 1.48  23 1.48  84 1.49
 151  0.444  0.670  0.987-  86 1.35  36 1.35
 152  0.189  0.425  0.987-  27 1.35  44 1.35
 153  0.448  0.800  0.991-  87 1.47  86 1.48  88 1.48
 154  0.196  0.301  0.995-  85 1.47  28 1.47  27 1.47
 155  0.442  0.167  0.997-  50 1.34  23 1.35
 156  0.662  0.345  0.145-  61 1.37
 
  LATTYP: Found a hexagonal cell.
 ALAT       =    19.1195600007
 C/A-ratio  =     1.0460491768
  
  Lattice vectors:
  
 A1 = (  16.5580246700,  -9.5597800000,   0.0000000000)
 A2 = (   0.0000000000,  19.1195600000,   0.0000000000)
 A3 = (   0.0000000000,   0.0000000000,  20.0000000000)


Analysis of symmetry for initial positions (statically):
=====================================================================
 Subroutine PRICEL returns:
 Original cell was already a primitive cell.
 

 Routine SETGRP: Setting up the symmetry group for a 
 hexagonal supercell.


 Subroutine GETGRP returns: Found  1 space group operations
 (whereof  1 operations were pure point group operations)
 out of a pool of 24 trial point group operations.


The static configuration has the point symmetry C_1 .


Analysis of symmetry for dynamics (positions and initial velocities):
=====================================================================
 Subroutine PRICEL returns:
 Original cell was already a primitive cell.
 

 Routine SETGRP: Setting up the symmetry group for a 
 hexagonal supercell.


 Subroutine GETGRP returns: Found  1 space group operations
 (whereof  1 operations were pure point group operations)
 out of a pool of 24 trial point group operations.


The dynamic configuration has the point symmetry C_1 .


Analysis of constrained symmetry for selective dynamics:
=====================================================================
 Subroutine PRICEL returns:
 Original cell was already a primitive cell.
 

 Routine SETGRP: Setting up the symmetry group for a 
 hexagonal supercell.


 Subroutine GETGRP returns: Found  1 space group operations
 (whereof  1 operations were pure point group operations)
 out of a pool of 24 trial point group operations.


The constrained configuration has the point symmetry C_1 .


Analysis of structural, dynamic, and magnetic symmetry:
=====================================================================
 Subroutine PRICEL returns:
 Original cell was already a primitive cell.
 

 Routine SETGRP: Setting up the symmetry group for a 
 hexagonal supercell.


 Subroutine GETGRP returns: Found  1 space group operations
 (whereof  1 operations were pure point group operations)
 out of a pool of 24 trial point group operations.


The magnetic configuration has the point symmetry C_1 .


 Subroutine INISYM returns: Found  1 space group operations
 (whereof  1 operations are pure point group operations),
 and found     1 'primitive' translations

 
 
 KPOINTS: mesh auto                               

Automatic generation of k-mesh.
Space group operators:
 irot       det(A)        alpha          n_x          n_y          n_z        tau_x        tau_y        tau_z
    1     1.000000     0.000000     1.000000     0.000000     0.000000     0.000000     0.000000     0.000000
 
 Subroutine IBZKPT returns following result:
 ===========================================
 
 Found      5 irreducible k-points:
 
 Following reciprocal coordinates:
            Coordinates               Weight
  0.000000  0.000000  0.000000      1.000000
  0.333333  0.000000  0.000000      2.000000
 -0.000000  0.333333  0.000000      2.000000
  0.333333  0.333333  0.000000      2.000000
 -0.333333  0.333333  0.000000      2.000000
 
 Following cartesian coordinates:
            Coordinates               Weight
  0.000000  0.000000  0.000000      1.000000
  0.020131  0.000000  0.000000      2.000000
  0.010066  0.017434  0.000000      2.000000
  0.030197  0.017434  0.000000      2.000000
 -0.010066  0.017434  0.000000      2.000000
 
 TETIRR: Found     24 inequivalent tetrahedra from       54


--------------------------------------------------------------------------------------------------------




 Dimension of arrays:
   k-points           NKPTS =      5   k-points in BZ     NKDIM =      5   number of bands    NBANDS=    480
   number of dos      NEDOS =    800   number of ions     NIONS =    156
   non local maximal  LDIM  =      4   non local SUM 2l+1 LMDIM =      8
   total plane-waves  NPLWV = 903168
   max r-space proj   IRMAX =   2726   max aug-charges    IRDMAX=   2013
   dimension x,y,z NGX =    96 NGY =   96 NGZ =   98
   dimension x,y,z NGXF=   192 NGYF=  192 NGZF=  196
   support grid    NGXF=   192 NGYF=  192 NGZF=  196
   ions per type =              18  70  67   1
 NGX,Y,Z   is equivalent  to a cutoff of   8.35,  8.35,  8.15 a.u.
 NGXF,Y,Z  is equivalent  to a cutoff of  16.69, 16.69, 16.29 a.u.


 I would recommend the setting:
   dimension x,y,z NGX =    94 NGY =   94 NGZ =   98
 SYSTEM =  C3N4-4x4-H1-new                         
 POSCAR =  AutoCreatByScript: H C N F              

 Startparameter for this run:
   NWRITE =      2    write-flag & timer
   PREC   = normal    normal or accurate (medium, high low for compatibility)
   ISTART =      1    job   : 0-new  1-cont  2-samecut
   ICHARG =     11    charge: 1-file 2-atom 10-const
   ISPIN  =      2    spin polarized calculation?
   LNONCOLLINEAR =      F non collinear calculations
   LSORBIT =      F    spin-orbit coupling
   INIWAV =      1    electr: 0-lowe 1-rand  2-diag
   LASPH  =      F    aspherical Exc in radial PAW
   METAGGA=      F    non-selfconsistent MetaGGA calc.

 Electronic Relaxation 1
   ENCUT  =  400.0 eV  29.40 Ry    5.42 a.u.  31.18 31.18 32.61*2*pi/ulx,y,z
   ENINI  =  400.0     initial cutoff
   ENAUG  =  644.9 eV  augmentation charge cutoff
   NELM   =     60;   NELMIN=  8; NELMDL=  0     # of ELM steps 
   EDIFF  = 0.1E-03   stopping-criterion for ELM
   LREAL  =      T    real-space projection
   NLSPLINE    = F    spline interpolate recip. space projectors
   LCOMPAT=      F    compatible to vasp.4.4
   GGA_COMPAT  = T    GGA compatible to vasp.4.4-vasp.4.6
   LMAXPAW     = -100 max onsite density
   LMAXMIX     =    2 max onsite mixed and CHGCAR
   VOSKOWN=      0    Vosko Wilk Nusair interpolation
   ROPT   =   -0.00050  -0.00050  -0.00050  -0.00050
 Ionic relaxation
   EDIFFG = -.5E-01   stopping-criterion for IOM
   NSW    =      0    number of steps for IOM
   NBLOCK =      1;   KBLOCK =      1    inner block; outer block 
   IBRION =     -1    ionic relax: 0-MD 1-quasi-New 2-CG
   NFREE  =      0    steps in history (QN), initial steepest desc. (CG)
   ISIF   =      2    stress and relaxation
   IWAVPR =     10    prediction:  0-non 1-charg 2-wave 3-comb
   ISYM   =      2    0-nonsym 1-usesym 2-fastsym
   LCORR  =      T    Harris-Foulkes like correction to forces

   POTIM  = 0.5000    time-step for ionic-motion
   TEIN   =    0.0    initial temperature
   TEBEG  =    0.0;   TEEND  =   0.0 temperature during run
   SMASS  =  -3.00    Nose mass-parameter (am)
   estimated Nose-frequenzy (Omega)   =  0.10E-29 period in steps =****** mass=  -0.835E-26a.u.
   SCALEE = 1.0000    scale energy and forces
   NPACO  =    256;   APACO  = 16.0  distance and # of slots for P.C.
   PSTRESS=    0.0 pullay stress

  Mass of Ions in am
   POMASS =   1.00 12.01 14.00 19.00
  Ionic Valenz
   ZVAL   =   1.00  4.00  5.00  7.00
  Atomic Wigner-Seitz radii
   RWIGS  =  -1.00 -1.00 -1.00 -1.00
  virtual crystal weights 
   VCA    =   1.00  1.00  1.00  1.00
   NELECT =     640.0000    total number of electrons
   NUPDOWN=      -1.0000    fix difference up-down

 DOS related values:
   EMIN   = -30.60;   EMAX   =  6.52  energy-range for DOS
   EFERMI =   0.00
   ISMEAR =    -5;   SIGMA  =   0.05  broadening in eV -4-tet -1-fermi 0-gaus

 Electronic relaxation 2 (details)
   IALGO  =     68    algorithm
   LDIAG  =      T    sub-space diagonalisation (order eigenvalues)
   LSUBROT=      F    optimize rotation matrix (better conditioning)
   TURBO    =      0    0=normal 1=particle mesh
   IRESTART =      0    0=no restart 2=restart with 2 vectors
   NREBOOT  =      0    no. of reboots
   NMIN     =      0    reboot dimension
   EREF     =   0.00    reference energy to select bands
   IMIX   =      4    mixing-type and parameters
     AMIX     =   0.40;   BMIX     =  1.00
     AMIX_MAG =   1.60;   BMIX_MAG =  1.00
     AMIN     =   0.10
     WC   =   100.;   INIMIX=   1;  MIXPRE=   1;  MAXMIX= -45

 Intra band minimization:
   WEIMIN = 0.0000     energy-eigenvalue tresh-hold
   EBREAK =  0.52E-07  absolut break condition
   DEPER  =   0.30     relativ break condition  

   TIME   =   0.40     timestep for ELM

  volume/ion in A,a.u.               =      40.59       273.90
  Fermi-wavevector in a.u.,A,eV,Ry     =   0.762599  1.441102  7.912559  0.581557
  Thomas-Fermi vector in A             =   1.862095
 
 Write flags
   LWAVE  =      T    write WAVECAR
   LCHARG =      T    write CHGCAR
   LVTOT  =      F    write LOCPOT, total local potential
   LVHAR  =      F    write LOCPOT, Hartree potential only
   LELF   =      F    write electronic localiz. function (ELF)
   LORBIT =     10    0 simple, 1 ext, 2 COOP (PROOUT)


 Dipole corrections
   LMONO  =      F    monopole corrections only (constant potential shift)
   LDIPOL =      F    correct potential (dipole corrections)
   IDIPOL =      0    1-x, 2-y, 3-z, 4-all directions 
   EPSILON=  1.0000000 bulk dielectric constant

 Exchange correlation treatment:
   GGA     =    --    GGA type
   LEXCH   =     8    internal setting for exchange type
   VOSKOWN=      0    Vosko Wilk Nusair interpolation
   LHFCALC =     F    Hartree Fock is set to
   LHFONE  =     F    Hartree Fock one center treatment
   AEXX    =    0.0000 exact exchange contribution

 Linear response parameters
   LEPSILON=     F    determine dielectric tensor
   LRPA    =     F    only Hartree local field effects (RPA)
   LNABLA  =     F    use nabla operator in PAW spheres
   LVEL    =     F    velocity operator in full k-point grid
   LINTERFAST=   F  fast interpolation
   KINTER  =     0    interpolate to denser k-point grid
   CSHIFT  =0.1000    complex shift for real part using Kramers Kronig
   OMEGAMAX=  -1.0    maximum frequency
   DEG_THRESHOLD= 0.2000000E-02 threshold for treating states as degnerate
   RTIME   =    0.100 relaxation time in fs

 Orbital magnetization related:
   ORBITALMAG=     F  switch on orbital magnetization
   LCHIMAG   =     F  perturbation theory with respect to B field
   DQ        =  0.001000  dq finite difference perturbation B field



--------------------------------------------------------------------------------------------------------


 Static calculation
 charge density and potential remain constant during run
 spin polarized calculation
 RMM-DIIS sequential band-by-band and
  variant of blocked Davidson during initial phase
 perform sub-space diagonalisation
    before iterative eigenvector-optimisation
 no mixing
 using additional bands          160
 real space projection scheme for non local part
 calculate Harris-corrections to forces 
   (improved forces if not selfconsistent)
 use gradient corrections 
 WARNING: stress and forces are not correct
  (second derivative of E(xc) not defined)
 use of overlap-Matrix (Vanderbilt PP)
 Fermi weights with tetrahedron method with Bloechl corrections


--------------------------------------------------------------------------------------------------------


  energy-cutoff  :      400.00
  volume of cell :     6331.64
      direct lattice vectors                 reciprocal lattice vectors
    16.558024670 -9.559780000  0.000000000     0.060393677  0.000000000  0.000000000
     0.000000000 19.119560000  0.000000000     0.030196839  0.052302459  0.000000000
     0.000000000  0.000000000 20.000000000     0.000000000  0.000000000  0.050000000

  length of vectors
    19.119560001 19.119560000 20.000000000     0.060393677  0.060393677  0.050000000


 
 old parameters found on file WAVECAR:
  energy-cutoff  :      400.00
  volume of cell :     6331.64
      direct lattice vectors                 reciprocal lattice vectors
    16.558024670 -9.559780000  0.000000000     0.060393677  0.000000000  0.000000000
     0.000000000 19.119560000  0.000000000     0.030196839  0.052302459  0.000000000
     0.000000000  0.000000000 20.000000000     0.000000000  0.000000000  0.050000000

  length of vectors

 
 k-points in units of 2pi/SCALE and weight: mesh auto                               
   0.00000000  0.00000000  0.00000000       0.111
   0.02013123  0.00000000  0.00000000       0.222
   0.01006561  0.01743415  0.00000000       0.222
   0.03019684  0.01743415  0.00000000       0.222
  -0.01006561  0.01743415  0.00000000       0.222
 
 k-points in reciprocal lattice and weights: mesh auto                               
   0.00000000  0.00000000  0.00000000       0.111
   0.33333333  0.00000000  0.00000000       0.222
  -0.00000000  0.33333333  0.00000000       0.222
   0.33333333  0.33333333  0.00000000       0.222
  -0.33333333  0.33333333  0.00000000       0.222
 
 position of ions in fractional coordinates (direct lattice) 
   0.54188249  0.36512676  0.14532420
   0.81401686  0.43047598  0.14377084
   0.46982982  0.68457476  0.14776167
   0.86804324  0.53725647  0.15742999
   0.11670056  0.61347470  0.16115123
   0.30918866  0.36944430  0.17598000
   0.43317434  0.36086378  0.17789432
   0.19597859  0.41262414  0.17809148
   0.11639925  0.48260649  0.18177440
   0.20443142  0.70688498  0.18092238
   0.57829989  0.62091441  0.19139733
   0.33439817  0.71373900  0.19559315
   0.84224704  0.47051498  0.22590876
   0.46883813  0.68150857  0.23597033
   0.14588036  0.63890297  0.24560560
   0.82933945  0.77960765  0.26078388
   0.84915836  0.72620047  0.32498408
   0.75756833  0.73129059  0.32703137
   0.03625407  0.59473938  0.98943369
   0.65259861  0.46327168  0.99110389
   0.78627563  0.59661524  0.99424017
   0.65388559  0.59819964  0.99493707
   0.40284221  0.20902285  0.99681541
   0.90399177  0.46016660  0.99744922
   0.90288646  0.59378887  0.99877474
   0.03520134  0.09352626  0.00081969
   0.15238169  0.34580656  0.00117880
   0.15185687  0.21251259  0.00186298
   0.15224989  0.71371444  0.00232896
   0.28562804  0.84627427  0.00257445
   0.65402738  0.34648711  0.00395380
   0.65312428  0.96332846  0.00617552
   0.90251238  0.09342038  0.00625618
   0.78573178  0.09527802  0.00677243
   0.90262348  0.95944283  0.00706503
   0.40246052  0.59344725  0.00931358
   0.65368999  0.09605528  0.00889868
   0.40297484  0.45997547  0.00987428
   0.15336434  0.84738071  0.00967215
   0.15401009  0.59685460  0.01008783
   0.28569657  0.59559446  0.01261707
   0.78526421  0.34450008  0.01343802
   0.65240219  0.21304432  0.01407719
   0.15267730  0.46329427  0.01412437
   0.53501667  0.59400439  0.01573943
   0.65177044  0.71244334  0.02154201
   0.65217254  0.84613353  0.02409326
   0.15335614  0.09748665  0.02535155
   0.90307078  0.70929793  0.02519630
   0.40288657  0.09397809  0.02599625
   0.40376273  0.96047551  0.02598819
   0.90239354  0.34406618  0.02707292
   0.28605343  0.09626150  0.02747394
   0.15235452  0.96353196  0.02826256
   0.90170442  0.84260182  0.03013587
   0.78462525  0.84456364  0.03067993
   0.90333355  0.21006983  0.03056358
   0.03699452  0.34504082  0.03099325
   0.53692994  0.09489902  0.03225473
   0.03584788  0.84407594  0.03564385
   0.66763552  0.41636360  0.16581442
   0.59482967  0.41844216  0.16521258
   0.82059659  0.47888203  0.17717097
   0.36775893  0.42470936  0.17988854
   0.43837296  0.42032625  0.18049693
   0.22678346  0.47829522  0.18310253
   0.74278391  0.47934218  0.18350657
   0.37288062  0.50029592  0.18447709
   0.18220586  0.51783079  0.18538198
   0.51555357  0.49015575  0.18538644
   0.31108570  0.52397487  0.18621467
   0.59030856  0.48540391  0.18703196
   0.44956214  0.57064296  0.18823902
   0.51968614  0.56602151  0.18852915
   0.21973995  0.60242049  0.19058072
   0.34973934  0.60906907  0.19062611
   0.44032041  0.64458225  0.19107125
   0.30451845  0.64783204  0.19270136
   0.16936723  0.64270667  0.19458327
   0.73847320  0.54614466  0.20904248
   0.66541103  0.54940854  0.21184562
   0.80200455  0.72760843  0.29489971
   0.53596630  0.34350790  0.98257823
   0.40158172  0.34235772  0.99007967
   0.28450635  0.34397235  0.99158092
   0.40359769  0.71115483  0.99187058
   0.53655770  0.84535462  0.99460048
   0.40279735  0.84477650  0.99699434
   0.57533982  0.30286771  0.98971027
   0.82367820  0.42044220  0.99011987
   0.69782119  0.55326825  0.99044660
   0.69057683  0.17449671  0.99124944
   0.94783586  0.54931092  0.99236668
   0.07619603  0.55417213  0.99304228
   0.57346786  0.55570695  0.99579339
   0.69403045  0.67949449  0.99666318
   0.32349051  0.67420105  0.99784416
   0.94668430  0.04829550  0.00187832
   0.19183441  0.92823492  0.00174289
   0.19724490  0.80296657  0.00254844
   0.32267784  0.17199928  0.00455824
   0.94230754  0.91779682  0.00497071
   0.69781567  0.05188337  0.00540368
   0.32258652  0.42217314  0.00705995
   0.94520350  0.42167041  0.00884465
   0.44310345  0.41886668  0.01174422
   0.69746300  0.30176539  0.01105602
   0.57307421  0.80391799  0.01157388
   0.82235158  0.92207215  0.01236142
   0.44683770  0.54880019  0.01299324
   0.19770992  0.55224918  0.01341429
   0.69263853  0.42689616  0.01396512
   0.82364974  0.67352991  0.01430607
   0.07340024  0.05410700  0.01837656
   0.07486720  0.30355389  0.01943089
   0.44435510  0.92019548  0.02123531
   0.07444773  0.80391223  0.02234646
   0.19148042  0.67634456  0.02503038
   0.32300456  0.92216857  0.02560127
   0.32471040  0.55571375  0.02808202
   0.82271431  0.17190139  0.02790957
   0.19266718  0.17875266  0.02868918
   0.57666613  0.05403420  0.02861665
   0.94205630  0.66695274  0.02826497
   0.69603006  0.80120750  0.02920244
   0.19743470  0.05296241  0.03057062
   0.94352097  0.16889949  0.03082922
   0.44798993  0.04944584  0.03183935
   0.69110406  0.92671439  0.03302781
   0.94752169  0.29950185  0.03372887
   0.94688248  0.79814214  0.03427873
   0.57631375  0.17585855  0.03735108
   0.57329293  0.67053387  0.03914813
   0.82242712  0.30617940  0.03913573
   0.07779310  0.42552230  0.04053175
   0.32617916  0.05876086  0.04838829
   0.82404883  0.80593360  0.05064112
   0.07554565  0.92355988  0.05063920
   0.79852680  0.61368015  0.23827395
   0.68229162  0.61904833  0.24369496
   0.76048437  0.65265949  0.25753887
   0.57490630  0.42380459  0.97173807
   0.32290030  0.30412229  0.97251798
   0.82666969  0.55856661  0.97585416
   0.32438474  0.80862557  0.97901014
   0.57782883  0.92490073  0.98045361
   0.07438839  0.17143224  0.98122151
   0.07505011  0.67543086  0.98160836
   0.82513994  0.05724796  0.98582204
   0.44674899  0.29759814  0.98650275
   0.44371934  0.67013004  0.98689198
   0.18948992  0.42539041  0.98728492
   0.44774935  0.80045452  0.99063598
   0.19615432  0.30095250  0.99536214
   0.44245578  0.16737069  0.99748667
   0.66195239  0.34516093  0.14545287
 
 position of ions in cartesian coordinates  (Angst):
   8.97250367  1.80078555  2.90648408
  13.47851131  0.44868914  2.87541685
   7.77945375  8.59729852  2.95523339
  14.37308137  1.97380499  3.14859971
   1.93233072 10.61373465  3.22302451
   5.11955349  4.10783681  3.51959993
   7.17251143  2.75850520  3.55788631
   3.24501841  6.01567969  3.56182968
   1.92734162  8.11447258  3.63548803
   3.38498045 11.56101037  3.61844754
   9.57550387  6.34319049  3.82794653
   5.53697322 10.44960261  3.91186308
  13.94594719  0.94434307  4.51817526
   7.76303324  8.54815457  4.71940667
   2.41549061 10.82095942  4.91211198
  13.73222310  6.97745248  5.21567753
  14.06038511  5.76686631  6.49968150
  12.54383503  6.73976774  6.54062733
   0.60029575 11.02457438 19.78867389
  10.80574383  2.61885150 19.82207784
  13.01917130  3.89039888 19.88480336
  10.82705381  5.18631152 19.89874131
   6.67027122  0.14534200 19.93630825
  14.96831795  0.15622052 19.94898438
  14.95001633  2.72158595 19.97549481
   0.58286467  1.45166381  0.01639386
   2.52313985  5.15493381  0.02357609
   2.51444985  2.61142892  0.03725960
   2.52095750 12.19043062  0.04657929
   4.72943613 13.44985048  0.05148909
  10.82940148  0.37232315  0.07907610
  10.81444798 12.17469190  0.12351032
  14.94382225 -6.84166321  0.12512353
  13.01016626 -5.68974921  0.13544868
  14.94566184  9.71524295  0.14130055
   6.66395117  7.49901623  0.18627160
  10.82381501 -4.41259774  0.17797368
   6.67246741  4.94217777  0.19748569
   2.53941049 14.73541706  0.19344302
   2.55010294  9.93929467  0.20175668
   4.73057079  8.65630766  0.25234144
  13.00242417 -0.92026309  0.26876038
  10.80249157 -2.16350781  0.28154381
   2.52803454  7.39842123  0.28248748
   8.85881922  6.24246088  0.31478861
  10.79203103  7.39082116  0.43084019
  10.79868896  9.94307484  0.48186512
   2.53927478  0.39785083  0.50703106
  14.95306828  4.92830632  0.50392597
   6.67100577 -2.05468715  0.51992497
   6.68551327 14.50398622  0.51976374
  14.94185445 -2.04828972  0.54145836
   4.73647971 -0.89413036  0.54947874
   2.52268997 16.96583141  0.56525117
  14.93044400  7.49008012  0.60271738
  12.99184431  8.64684048  0.61359860
  14.95741913 -4.61922715  0.61127161
   0.61255624  6.24336920  0.61986499
   8.89049920 -3.31850453  0.64509464
   0.59357007 15.79566275  0.71287700
  11.05472535  1.57824015  3.31628835
   9.84920442  2.31398907  3.30425162
  13.58745851  1.31129081  3.54341949
   6.08936138  4.60456175  3.59777076
   7.25859031  3.84570390  3.60993851
   3.75508612  6.97679421  3.66205068
  12.29903434  2.06396075  3.67013134
   6.17416655  6.00078120  3.68954186
   3.01696913  8.15884899  3.70763952
   8.53654881  4.44298353  3.70772888
   5.15096465  7.04425811  3.72429331
   9.77434374  3.63748924  3.74063921
   7.44386103  6.61272712  3.76478049
   8.60497591  5.85399715  3.77058307
   3.63845959  9.41734900  3.81161435
   5.79099258  8.30170141  3.81252228
   7.29083629  8.11476267  3.82142507
   5.04222400  9.47513416  3.85402712
   2.80438677 10.66915528  3.89166532
  12.22765743  3.38240436  4.18084968
  11.01789228  4.14326647  4.23691244
  13.27961112  6.24456590  5.89799419
   8.87454329  1.44399993 19.65156452
   6.64939997  2.70669605 19.80159348
   4.71086317  3.85678186 19.83161846
   6.68278044  9.73866232 19.83741167
   8.88433560 11.03343478 19.89200962
   6.66952848 12.30110098 19.93988680
   9.52649092  0.29057528 19.79420532
  13.63848401  0.16448743 19.80239736
  11.55454049  3.90722852 19.80893201
  11.43458813 -3.26546224 19.82498889
  15.69428957  1.44148071 19.84733364
   1.26165571  9.86710999 19.86084559
   9.49549494  5.14264575 19.91586772
  11.49177338  6.35685722 19.93326368
   5.35636389  9.79792939 19.95688327
  15.67522197 -8.12670483  0.03756633
   3.17639897 15.91354841  0.03485784
   3.26598588 13.46674969  0.05096888
   5.34290772  0.20382135  0.09116479
  15.60275152  8.53961858  0.09941415
  11.55444908 -5.67897716  0.10807359
   5.34139562  4.98790849  0.14119908
  15.65070294 -0.97378492  0.17689293
   7.33691783  3.77257521  0.23488439
  11.54860959 -0.89797143  0.22112033
   9.48897690  9.89209483  0.23147755
  13.61651775  9.76811359  0.24722849
   7.39874962  6.22114805  0.25986479
   3.27368572  8.66869806  0.26828571
  11.46872580  1.54059486  0.27930241
  13.63801267  5.00368518  0.28612149
   1.21536298  0.33281180  0.36753119
   1.23965293  5.08810283  0.38861781
   7.35764269 13.34579572  0.42470620
   1.23270733 14.65874427  0.44692925
   3.17053753 11.10089968  0.50060767
   5.34831754 14.54360473  0.51202541
   5.37656278  7.52084249  0.56164049
  13.62252389 -4.57828890  0.55819133
   3.19018785  1.57581645  0.57378351
   9.54845208 -4.47969120  0.57233299
  15.59859153  3.74599192  0.56529939
  11.52488289  8.66484068  0.58404872
   3.26912859 -0.87481437  0.61141235
  15.62284347 -5.79056895  0.61658444
   7.41782829 -3.33730251  0.63678699
  11.44331806 11.11156853  0.66055618
  15.68908748 -3.33175523  0.67457748
  15.67850350  6.20813834  0.68557451
   9.54261734 -2.14709460  0.74702165
   9.49259847  7.33975822  0.78296256
  13.61776862 -2.00820693  0.78271457
   1.28810003  7.39211422  0.81063508
   5.40088263 -1.99471918  0.96776582
  13.64462080  7.53137035  1.01282240
   1.25088672 16.93585876  1.01278409
  13.22202650  4.09955386  4.76547891
  11.29740142  5.31337396  4.87389911
  12.59211897  5.20849899  5.15077747
   9.51931270  2.60697959 19.43476130
   5.34659117  2.72782860 19.45035955
  13.68801709  2.77676754 19.51708323
   5.37117054 12.35951840 19.58020282
   9.56770396 12.15977851 19.60907210
   1.23172474  2.56657238 19.62443015
   1.24268164 12.19647825 19.63216720
  13.66268755 -6.79360044 19.71644071
   7.39728077  1.41912346 19.73005492
   7.34711578  8.57073218 19.73783964
   3.13757877  6.32179560 19.74569839
   7.41384480 11.02395290 19.81271969
   3.24792815  3.87888714 19.90724282
   7.32619365 -1.02972588 19.94973340
  10.96062404  0.27120594  2.90905744
 


--------------------------------------------------------------------------------------------------------


 k-point  1 :   0.0000 0.0000 0.0000  plane waves:  114941
 k-point  2 :   0.3333 0.0000 0.0000  plane waves:  115004
 k-point  3 :  -0.0000 0.3333 0.0000  plane waves:  115004
 k-point  4 :   0.3333 0.3333 0.0000  plane waves:  115047
 k-point  5 :  -0.3333 0.3333 0.0000  plane waves:  115004

 maximum and minimum number of plane-waves per node :    115047   114941

 maximum number of plane-waves:    115047
 maximum index in each direction: 
   IXMAX=   31   IYMAX=   31   IZMAX=   32
   IXMIN=  -31   IYMIN=  -31   IZMIN=  -32

 WARNING: aliasing errors must be expected set NGX to 126 to avoid them
 WARNING: aliasing errors must be expected set NGY to 126 to avoid them
 WARNING: aliasing errors must be expected set NGZ to 130 to avoid them
 aliasing errors are usually negligible using standard VASP settings
 and one can safely disregard these warnings

 serial   3D FFT for wavefunctions
 parallel 3D FFT for charge:
    minimum data exchange during FFTs selected (reduces bandwidth)


 total amount of memory used by VASP on root node   442531. kBytes
========================================================================

   base      :      30000. kBytes
   nonlr-proj:      26738. kBytes
   fftplans  :      11336. kBytes
   grid      :      94408. kBytes
   one-center:        958. kBytes
   wavefun   :     279091. kBytes
 
     INWAV:  cpu time   22.9775: real time   40.0867
 initial charge density was supplied:
 number of electron     640.0000106 magnetization      -0.0003469
 keeping initial charge density in first step


--------------------------------------------------------------------------------------------------------


 Maximum index for non-local projection operator         2619
 Maximum index for augmentation-charges          156 (set IRDMAX)


--------------------------------------------------------------------------------------------------------


 First call to EWALD:  gamma=   0.096
 Maximum number of real-space cells 3x 3x 3
 Maximum number of reciprocal cells 3x 3x 3

 FEWALD executed in parallel
    FEWALD:  cpu time    0.0070: real time    0.0066


----------------------------------------- Iteration    1(   1)  ---------------------------------------


    POTLOK:  cpu time    0.4069: real time    0.4079
    SETDIJ:  cpu time    0.0210: real time    0.0212
     EDDAV:  cpu time   49.6325: real time   49.6436
 BZINTS: Fermi energy: -3.352340;640.000000 electrons
         Band energy:***********;  BLOECHL correction:  0.000000
       DOS:  cpu time    0.0050: real time    0.0059
    --------------------------------------------
      LOOP:  cpu time   50.0684: real time   50.0921

 eigenvalue-minimisations  :  6368
 total energy-change (2. order) :-0.1235290E+04  (-0.1231123E-05)
 number of electron     640.0000106 magnetization      -0.0003469
 augmentation part      640.0000106 magnetization      -0.0003469

 Free energy of the ion-electron system (eV)
  ---------------------------------------------------
  alpha Z        PSCENC =       296.87332614
  Ewald energy   TEWEN  =    102788.49700280
  -Hartree energ DENC   =   -127473.72272398
  -exchange      EXHF   =         0.00000000
  -V(xc)+E(xc)   XCENC  =      2466.08281275
  PAW double counting   =     15916.92071303   -16119.86394770
  entropy T*S    EENTRO =         0.00000000
  eigenvalues    EBANDS =     -8012.71960505
  atomic energy  EATOM  =     28902.64245741
  Solvation  Ediel_sol  =         0.00000000
  ---------------------------------------------------
  free energy    TOTEN  =     -1235.28996461 eV

  energy without entropy =    -1235.28996461  energy(sigma->0) =    -1235.28996461


--------------------------------------------------------------------------------------------------------




----------------------------------------- Iteration    1(   2)  ---------------------------------------


    EDDIAG:  cpu time   12.8250: real time   12.8324
  RMM-DIIS:  cpu time   22.7775: real time   22.7785
    ORTHCH:  cpu time    3.6045: real time    3.6039
 BZINTS: Fermi energy: -3.352340;640.000000 electrons
         Band energy:***********;  BLOECHL correction:  0.000000
       DOS:  cpu time    0.0060: real time    0.0063
    --------------------------------------------
      LOOP:  cpu time   39.2140: real time   39.2233

 eigenvalue-minimisations  :  4929
 total energy-change (2. order) :-0.2839079E-06  (-0.2834456E-06)
 number of electron     640.0000106 magnetization      -0.0003469
 augmentation part      640.0000106 magnetization      -0.0003469

 Free energy of the ion-electron system (eV)
  ---------------------------------------------------
  alpha Z        PSCENC =       296.87332614
  Ewald energy   TEWEN  =    102788.49700280
  -Hartree energ DENC   =   -127473.72272398
  -exchange      EXHF   =         0.00000000
  -V(xc)+E(xc)   XCENC  =      2466.08281275
  PAW double counting   =     15916.92071303   -16119.86394770
  entropy T*S    EENTRO =         0.00000000
  eigenvalues    EBANDS =     -8012.71960533
  atomic energy  EATOM  =     28902.64245741
  Solvation  Ediel_sol  =         0.00000000
  ---------------------------------------------------
  free energy    TOTEN  =     -1235.28996489 eV

  energy without entropy =    -1235.28996489  energy(sigma->0) =    -1235.28996489


--------------------------------------------------------------------------------------------------------




----------------------------------------- Iteration    1(   3)  ---------------------------------------


    EDDIAG:  cpu time   12.8290: real time   12.8298
  RMM-DIIS:  cpu time   20.9488: real time   20.9483
    ORTHCH:  cpu time    3.5905: real time    3.5886
 BZINTS: Fermi energy: -3.352340;640.000000 electrons
         Band energy:***********;  BLOECHL correction:  0.000000
       DOS:  cpu time    0.0060: real time    0.0063
    --------------------------------------------
      LOOP:  cpu time   37.3753: real time   37.3759

 eigenvalue-minimisations  :  3599
 total energy-change (2. order) :-0.1073931E-07  (-0.7928674E-08)
 number of electron     640.0000106 magnetization      -0.0003469
 augmentation part      640.0000106 magnetization      -0.0003469

 Free energy of the ion-electron system (eV)
  ---------------------------------------------------
  alpha Z        PSCENC =       296.87332614
  Ewald energy   TEWEN  =    102788.49700280
  -Hartree energ DENC   =   -127473.72272398
  -exchange      EXHF   =         0.00000000
  -V(xc)+E(xc)   XCENC  =      2466.08281275
  PAW double counting   =     15916.92071303   -16119.86394770
  entropy T*S    EENTRO =         0.00000000
  eigenvalues    EBANDS =     -8012.71960535
  atomic energy  EATOM  =     28902.64245741
  Solvation  Ediel_sol  =         0.00000000
  ---------------------------------------------------
  free energy    TOTEN  =     -1235.28996490 eV

  energy without entropy =    -1235.28996490  energy(sigma->0) =    -1235.28996490


--------------------------------------------------------------------------------------------------------




----------------------------------------- Iteration    1(   4)  ---------------------------------------


    EDDIAG:  cpu time   12.8420: real time   12.8418
  RMM-DIIS:  cpu time   19.5030: real time   19.5017
    ORTHCH:  cpu time    3.5915: real time    3.5928
 BZINTS: Fermi energy: -3.352340;640.000000 electrons
         Band energy:***********;  BLOECHL correction:  0.000000
       DOS:  cpu time    0.0060: real time    0.0063
    --------------------------------------------
      LOOP:  cpu time   35.9435: real time   35.9449

 eigenvalue-minimisations  :  3060
 total energy-change (2. order) :-0.1105946E-08  (-0.9886428E-09)
 number of electron     640.0000106 magnetization      -0.0003469
 augmentation part      640.0000106 magnetization      -0.0003469

 Free energy of the ion-electron system (eV)
  ---------------------------------------------------
  alpha Z        PSCENC =       296.87332614
  Ewald energy   TEWEN  =    102788.49700280
  -Hartree energ DENC   =   -127473.72272398
  -exchange      EXHF   =         0.00000000
  -V(xc)+E(xc)   XCENC  =      2466.08281275
  PAW double counting   =     15916.92071303   -16119.86394770
  entropy T*S    EENTRO =         0.00000000
  eigenvalues    EBANDS =     -8012.71960535
  atomic energy  EATOM  =     28902.64245741
  Solvation  Ediel_sol  =         0.00000000
  ---------------------------------------------------
  free energy    TOTEN  =     -1235.28996490 eV

  energy without entropy =    -1235.28996490  energy(sigma->0) =    -1235.28996490


--------------------------------------------------------------------------------------------------------




----------------------------------------- Iteration    1(   5)  ---------------------------------------


    EDDIAG:  cpu time   12.8410: real time   12.8405
  RMM-DIIS:  cpu time   19.0011: real time   18.9995
    ORTHCH:  cpu time    3.5895: real time    3.5886
 BZINTS: Fermi energy: -3.352340;640.000000 electrons
         Band energy:***********;  BLOECHL correction:  0.000000
       DOS:  cpu time    0.0060: real time    0.0063
    --------------------------------------------
      LOOP:  cpu time   35.4386: real time   35.4377

 eigenvalue-minimisations  :  2900
 total energy-change (2. order) : 0.0000000E+00  ( 0.0000000E+00)
 number of electron     640.0000106 magnetization      -0.0003469
 augmentation part      640.0000106 magnetization      -0.0003469

 Free energy of the ion-electron system (eV)
  ---------------------------------------------------
  alpha Z        PSCENC =       296.87332614
  Ewald energy   TEWEN  =    102788.49700280
  -Hartree energ DENC   =   -127473.72272398
  -exchange      EXHF   =         0.00000000
  -V(xc)+E(xc)   XCENC  =      2466.08281275
  PAW double counting   =     15916.92071303   -16119.86394770
  entropy T*S    EENTRO =         0.00000000
  eigenvalues    EBANDS =     -8012.71960535
  atomic energy  EATOM  =     28902.64245741
  Solvation  Ediel_sol  =         0.00000000
  ---------------------------------------------------
  free energy    TOTEN  =     -1235.28996490 eV

  energy without entropy =    -1235.28996490  energy(sigma->0) =    -1235.28996490


--------------------------------------------------------------------------------------------------------




----------------------------------------- Iteration    1(   6)  ---------------------------------------


    EDDIAG:  cpu time   12.8390: real time   12.8395
  RMM-DIIS:  cpu time   18.1932: real time   18.1924
    ORTHCH:  cpu time    3.5885: real time    3.5904
 BZINTS: Fermi energy: -3.352340;640.000000 electrons
         Band energy:***********;  BLOECHL correction:  0.000000
       DOS:  cpu time    0.0070: real time    0.0063
    --------------------------------------------
      LOOP:  cpu time   34.6297: real time   34.6309

 eigenvalue-minimisations  :  2603
 total energy-change (2. order) : 0.0000000E+00  ( 0.0000000E+00)
 number of electron     640.0000106 magnetization      -0.0003469
 augmentation part      640.0000106 magnetization      -0.0003469

 Free energy of the ion-electron system (eV)
  ---------------------------------------------------
  alpha Z        PSCENC =       296.87332614
  Ewald energy   TEWEN  =    102788.49700280
  -Hartree energ DENC   =   -127473.72272398
  -exchange      EXHF   =         0.00000000
  -V(xc)+E(xc)   XCENC  =      2466.08281275
  PAW double counting   =     15916.92071303   -16119.86394770
  entropy T*S    EENTRO =         0.00000000
  eigenvalues    EBANDS =     -8012.71960535
  atomic energy  EATOM  =     28902.64245741
  Solvation  Ediel_sol  =         0.00000000
  ---------------------------------------------------
  free energy    TOTEN  =     -1235.28996490 eV

  energy without entropy =    -1235.28996490  energy(sigma->0) =    -1235.28996490


--------------------------------------------------------------------------------------------------------




----------------------------------------- Iteration    1(   7)  ---------------------------------------


    EDDIAG:  cpu time   12.8300: real time   12.8289
  RMM-DIIS:  cpu time   17.9593: real time   17.9603
    ORTHCH:  cpu time    3.6055: real time    3.6040
 BZINTS: Fermi energy: -3.352340;640.000000 electrons
         Band energy:***********;  BLOECHL correction:  0.000000
       DOS:  cpu time    0.0060: real time    0.0063
    --------------------------------------------
      LOOP:  cpu time   34.4018: real time   34.4024

 eigenvalue-minimisations  :  2499
 total energy-change (2. order) : 0.0000000E+00  ( 0.0000000E+00)
 number of electron     640.0000106 magnetization      -0.0003469
 augmentation part      640.0000106 magnetization      -0.0003469

 Free energy of the ion-electron system (eV)
  ---------------------------------------------------
  alpha Z        PSCENC =       296.87332614
  Ewald energy   TEWEN  =    102788.49700280
  -Hartree energ DENC   =   -127473.72272398
  -exchange      EXHF   =         0.00000000
  -V(xc)+E(xc)   XCENC  =      2466.08281275
  PAW double counting   =     15916.92071303   -16119.86394770
  entropy T*S    EENTRO =         0.00000000
  eigenvalues    EBANDS =     -8012.71960535
  atomic energy  EATOM  =     28902.64245741
  Solvation  Ediel_sol  =         0.00000000
  ---------------------------------------------------
  free energy    TOTEN  =     -1235.28996490 eV

  energy without entropy =    -1235.28996490  energy(sigma->0) =    -1235.28996490


--------------------------------------------------------------------------------------------------------




----------------------------------------- Iteration    1(   8)  ---------------------------------------


    EDDIAG:  cpu time   12.8260: real time   12.8305
  RMM-DIIS:  cpu time   17.4953: real time   17.5039
    ORTHCH:  cpu time    3.6025: real time    3.6045
 BZINTS: Fermi energy: -3.352340;640.000000 electrons
         Band energy:***********;  BLOECHL correction:  0.000000
       DOS:  cpu time    0.0060: real time    0.0057
    --------------------------------------------
      LOOP:  cpu time   33.9308: real time   33.9468

 eigenvalue-minimisations  :  2342
 total energy-change (2. order) :-0.2910383E-10  ( 0.0000000E+00)
 number of electron     640.0000106 magnetization      -0.0003469
 augmentation part      640.0000106 magnetization      -0.0003469

 Free energy of the ion-electron system (eV)
  ---------------------------------------------------
  alpha Z        PSCENC =       296.87332614
  Ewald energy   TEWEN  =    102788.49700280
  -Hartree energ DENC   =   -127473.72272398
  -exchange      EXHF   =         0.00000000
  -V(xc)+E(xc)   XCENC  =      2466.08281275
  PAW double counting   =     15916.92071303   -16119.86394770
  entropy T*S    EENTRO =         0.00000000
  eigenvalues    EBANDS =     -8012.71960535
  atomic energy  EATOM  =     28902.64245741
  Solvation  Ediel_sol  =         0.00000000
  ---------------------------------------------------
  free energy    TOTEN  =     -1235.28996490 eV

  energy without entropy =    -1235.28996490  energy(sigma->0) =    -1235.28996490


--------------------------------------------------------------------------------------------------------




 average (electrostatic) potential at core
  the test charge radii are     0.5201  0.6991  0.7089  0.7167
  (the norm of the test charge is              1.0000)
       1 -40.8548       2 -40.3045       3 -40.3525       4 -40.2940       5 -40.1157
       6 -40.4481       7 -40.4874       8 -40.4076       9 -40.2416      10 -40.0759
      11 -40.1880      12 -40.3701      13 -40.2970      14 -40.3963      15 -40.1005
      16 -41.0636      17 -41.1128      18 -41.1183      19 -60.6855      20 -60.6244
      21 -60.7150      22 -60.6935      23 -60.7900      24 -60.7608      25 -60.6920
      26 -60.6651      27 -60.6574      28 -60.6159      29 -60.5852      30 -60.6712
      31 -60.6027      32 -60.5953      33 -60.6838      34 -60.6442      35 -60.7768
      36 -60.5768      37 -60.5684      38 -60.6606      39 -60.6911      40 -60.5784
      41 -60.5661      42 -60.6462      43 -60.5515      44 -60.5803      45 -60.5802
      46 -60.6096      47 -60.7099      48 -60.7114      49 -60.7764      50 -60.7154
      51 -60.7724      52 -60.7668      53 -60.7142      54 -60.6607      55 -60.6958
      56 -60.7047      57 -60.7902      58 -60.7200      59 -60.6883      60 -60.7111
      61 -59.1678      62 -57.4577      63 -57.0558      64 -57.1260      65 -57.1553
      66 -57.0550      67 -57.6745      68 -57.2390      69 -56.9469      70 -57.4466
      71 -57.1566      72 -57.8118      73 -57.2055      74 -56.9921      75 -57.2453
      76 -57.2150      77 -57.1544      78 -57.0094      79 -56.7787      80 -58.0852
      81 -58.0764      82 -58.3635      83 -60.6895      84 -60.6219      85 -60.6059
      86 -60.6747      87 -60.6702      88 -60.7120      89 -72.3703      90 -72.4275
      91 -74.2833      92 -72.3550      93 -74.3069      94 -72.3978      95 -72.3658
      96 -72.4379      97 -72.3594      98 -74.3176      99 -72.4597     100 -74.2511
     101 -72.5054     102 -72.5097     103 -74.2070     104 -72.3716     105 -72.5093
     106 -72.4021     107 -74.1826     108 -72.4371     109 -72.4960     110 -74.2116
     111 -74.1802     112 -72.3769     113 -72.5032     114 -72.4359     115 -72.4483
     116 -72.4868     117 -72.4325     118 -72.3427     119 -72.4644     120 -72.3108
     121 -72.4682     122 -72.4594     123 -72.3944     124 -72.5071     125 -74.2771
     126 -74.2832     127 -72.5070     128 -74.3261     129 -72.4486     130 -74.3694
     131 -74.3078     132 -72.4007     133 -72.3853     134 -72.4587     135 -72.4352
     136 -72.4983     137 -72.4866     138 -72.4537     139 -72.5040     140 -72.5597
     141 -75.1227     142 -72.3927     143 -72.3923     144 -72.4719     145 -72.4448
     146 -72.4265     147 -72.4324     148 -72.4146     149 -72.4358     150 -74.2945
     151 -72.4055     152 -72.3945     153 -74.2787     154 -74.2264     155 -72.5055
     156 -84.3777
 
 
 
 E-fermi :  -3.3523     XC(G=0):  -2.8207     alpha+bet : -2.1182


 spin component 1

 k-point     1 :       0.0000    0.0000    0.0000
  band No.  band energies     occupation 
      1     -28.9094      1.00000
      2     -26.3568      1.00000
      3     -25.4648      1.00000
      4     -25.2083      1.00000
      5     -25.2054      1.00000
      6     -25.1939      1.00000
      7     -25.1892      1.00000
      8     -25.1756      1.00000
      9     -25.1662      1.00000
     10     -24.7812      1.00000
     11     -24.7578      1.00000
     12     -24.7524      1.00000
     13     -24.7477      1.00000
     14     -24.7315      1.00000
     15     -24.7283      1.00000
     16     -24.7095      1.00000
     17     -24.7010      1.00000
     18     -24.6988      1.00000
     19     -23.4922      1.00000
     20     -23.4834      1.00000
     21     -23.4355      1.00000
     22     -23.4007      1.00000
     23     -23.3995      1.00000
     24     -23.3854      1.00000
     25     -23.3777      1.00000
     26     -23.3688      1.00000
     27     -23.3359      1.00000
     28     -22.5708      1.00000
     29     -22.5497      1.00000
     30     -22.5411      1.00000
     31     -22.5289      1.00000
     32     -22.5246      1.00000
     33     -22.5167      1.00000
     34     -21.6900      1.00000
     35     -21.6793      1.00000
     36     -21.6752      1.00000
     37     -21.6620      1.00000
     38     -21.6590      1.00000
     39     -21.6486      1.00000
     40     -21.3966      1.00000
     41     -21.3763      1.00000
     42     -21.3717      1.00000
     43     -21.2925      1.00000
     44     -21.2598      1.00000
     45     -21.2553      1.00000
     46     -21.2467      1.00000
     47     -21.2441      1.00000
     48     -21.2360      1.00000
     49     -21.2146      1.00000
     50     -21.1017      1.00000
     51     -21.0925      1.00000
     52     -20.8499      1.00000
     53     -20.5721      1.00000
     54     -20.5694      1.00000
     55     -20.5634      1.00000
     56     -20.5604      1.00000
     57     -20.5520      1.00000
     58     -20.5364      1.00000
     59     -20.5280      1.00000
     60     -20.4966      1.00000
     61     -20.4660      1.00000
     62     -20.4617      1.00000
     63     -20.3517      1.00000
     64     -20.2510      1.00000
     65     -20.2026      1.00000
     66     -20.1889      1.00000
     67     -20.1782      1.00000
     68     -20.1694      1.00000
     69     -20.1220      1.00000
     70     -19.4266      1.00000
     71     -18.9842      1.00000
     72     -18.4803      1.00000
     73     -17.8091      1.00000
     74     -17.3467      1.00000
     75     -17.3059      1.00000
     76     -17.2557      1.00000
     77     -16.7793      1.00000
     78     -16.7762      1.00000
     79     -16.7686      1.00000
     80     -16.7639      1.00000
     81     -16.7582      1.00000
     82     -16.7225      1.00000
     83     -16.6834      1.00000
     84     -16.5443      1.00000
     85     -16.2150      1.00000
     86     -16.2033      1.00000
     87     -16.1954      1.00000
     88     -16.1802      1.00000
     89     -16.1575      1.00000
     90     -16.1523      1.00000
     91     -16.1441      1.00000
     92     -16.1148      1.00000
     93     -16.1061      1.00000
     94     -16.0947      1.00000
     95     -16.0215      1.00000
     96     -16.0106      1.00000
     97     -16.0027      1.00000
     98     -15.9848      1.00000
     99     -15.9792      1.00000
    100     -15.9087      1.00000
    101     -15.6617      1.00000
    102     -15.2812      1.00000
    103     -14.9183      1.00000
    104     -14.7507      1.00000
    105     -14.7212      1.00000
    106     -14.6915      1.00000
    107     -14.6852      1.00000
    108     -14.6780      1.00000
    109     -14.6547      1.00000
    110     -14.2138      1.00000
    111     -14.0474      1.00000
    112     -13.9685      1.00000
    113     -13.9150      1.00000
    114     -13.8693      1.00000
    115     -13.6267      1.00000
    116     -13.6144      1.00000
    117     -13.5598      1.00000
    118     -13.5236      1.00000
    119     -13.5070      1.00000
    120     -13.4750      1.00000
    121     -13.4623      1.00000
    122     -13.4484      1.00000
    123     -13.4453      1.00000
    124     -13.3274      1.00000
    125     -13.1955      1.00000
    126     -13.1526      1.00000
    127     -13.0973      1.00000
    128     -12.9930      1.00000
    129     -12.6485      1.00000
    130     -12.6462      1.00000
    131     -12.6299      1.00000
    132     -12.6200      1.00000
    133     -12.6062      1.00000
    134     -12.6054      1.00000
    135     -12.5573      1.00000
    136     -12.2673      1.00000
    137     -12.2316      1.00000
    138     -12.0758      1.00000
    139     -12.0530      1.00000
    140     -12.0478      1.00000
    141     -12.0361      1.00000
    142     -12.0285      1.00000
    143     -11.9508      1.00000
    144     -11.9412      1.00000
    145     -11.7578      1.00000
    146     -11.4702      1.00000
    147     -11.3960      1.00000
    148     -11.3604      1.00000
    149     -11.3172      1.00000
    150     -11.3136      1.00000
    151     -11.3086      1.00000
    152     -11.2843      1.00000
    153     -11.2649      1.00000
    154     -11.1258      1.00000
    155     -11.1045      1.00000
    156     -11.0915      1.00000
    157     -11.0810      1.00000
    158     -11.0715      1.00000
    159     -10.9951      1.00000
    160     -10.9354      1.00000
    161     -10.8670      1.00000
    162     -10.8179      1.00000
    163     -10.7536      1.00000
    164     -10.7311      1.00000
    165     -10.7143      1.00000
    166     -10.6922      1.00000
    167     -10.6899      1.00000
    168     -10.6479      1.00000
    169     -10.5848      1.00000
    170     -10.4960      1.00000
    171     -10.3976      1.00000
    172     -10.3529      1.00000
    173     -10.3278      1.00000
    174     -10.3031      1.00000
    175     -10.2794      1.00000
    176     -10.2674      1.00000
    177     -10.2628      1.00000
    178     -10.2436      1.00000
    179     -10.1764      1.00000
    180     -10.1501      1.00000
    181     -10.1406      1.00000
    182     -10.1059      1.00000
    183     -10.0905      1.00000
    184     -10.0776      1.00000
    185     -10.0650      1.00000
    186     -10.0570      1.00000
    187      -9.9919      1.00000
    188      -9.9481      1.00000
    189      -9.9236      1.00000
    190      -9.7997      1.00000
    191      -9.6854      1.00000
    192      -9.5805      1.00000
    193      -9.4770      1.00000
    194      -9.2695      1.00000
    195      -9.2570      1.00000
    196      -9.1111      1.00000
    197      -9.0578      1.00000
    198      -8.9809      1.00000
    199      -8.9501      1.00000
    200      -8.9314      1.00000
    201      -8.9221      1.00000
    202      -8.9077      1.00000
    203      -8.8985      1.00000
    204      -8.8305      1.00000
    205      -8.7899      1.00000
    206      -8.7737      1.00000
    207      -8.7120      1.00000
    208      -8.6232      1.00000
    209      -8.5797      1.00000
    210      -8.5733      1.00000
    211      -8.5481      1.00000
    212      -8.5387      1.00000
    213      -8.5229      1.00000
    214      -8.4906      1.00000
    215      -8.4403      1.00000
    216      -8.4190      1.00000
    217      -8.3864      1.00000
    218      -8.3465      1.00000
    219      -8.2166      1.00000
    220      -8.1926      1.00000
    221      -8.1497      1.00000
    222      -8.1345      1.00000
    223      -8.0985      1.00000
    224      -8.0849      1.00000
    225      -8.0734      1.00000
    226      -8.0298      1.00000
    227      -7.9725      1.00000
    228      -7.8867      1.00000
    229      -7.7965      1.00000
    230      -7.7060      1.00000
    231      -7.6874      1.00000
    232      -7.6645      1.00000
    233      -7.6536      1.00000
    234      -7.6091      1.00000
    235      -7.5686      1.00000
    236      -7.5158      1.00000
    237      -7.4847      1.00000
    238      -7.3931      1.00000
    239      -7.3200      1.00000
    240      -7.2169      1.00000
    241      -7.1350      1.00000
    242      -7.0882      1.00000
    243      -7.0816      1.00000
    244      -7.0727      1.00000
    245      -7.0138      1.00000
    246      -6.9967      1.00000
    247      -6.9889      1.00000
    248      -6.9815      1.00000
    249      -6.9332      1.00000
    250      -6.8997      1.00000
    251      -6.8692      1.00000
    252      -6.8220      1.00000
    253      -6.8147      1.00000
    254      -6.7949      1.00000
    255      -6.7590      1.00000
    256      -6.7529      1.00000
    257      -6.6861      1.00000
    258      -6.6694      1.00000
    259      -6.6391      1.00000
    260      -6.5828      1.00000
    261      -6.5765      1.00000
    262      -6.3048      1.00000
    263      -6.1566      1.00000
    264      -6.1345      1.00000
    265      -6.0785      1.00000
    266      -6.0373      1.00000
    267      -5.9789      1.00000
    268      -5.9753      1.00000
    269      -5.8602      1.00000
    270      -5.8291      1.00000
    271      -5.7902      1.00000
    272      -5.7525      1.00000
    273      -5.7393      1.00000
    274      -5.7247      1.00000
    275      -5.6832      1.00000
    276      -5.5689      1.00000
    277      -5.5368      1.00000
    278      -5.4921      1.00000
    279      -5.4661      1.00000
    280      -5.4459      1.00000
    281      -5.3944      1.00000
    282      -5.3918      1.00000
    283      -5.3591      1.00000
    284      -5.3356      1.00000
    285      -5.3001      1.00000
    286      -5.2317      1.00000
    287      -5.1944      1.00000
    288      -5.1884      1.00000
    289      -5.1691      1.00000
    290      -5.1377      1.00000
    291      -5.1067      1.00000
    292      -5.0736      1.00000
    293      -4.7671      1.00000
    294      -4.6727      1.00000
    295      -4.6658      1.00000
    296      -4.6554      1.00000
    297      -4.6260      1.00000
    298      -4.6021      1.00000
    299      -4.5675      1.00000
    300      -4.5527      1.00000
    301      -4.4956      1.00000
    302      -4.4426      1.00000
    303      -4.4273      1.00000
    304      -4.4047      1.00000
    305      -4.3840      1.00000
    306      -4.3385      1.00000
    307      -4.2875      1.00000
    308      -4.2705      1.00000
    309      -4.2198      1.00000
    310      -4.2021      1.00000
    311      -4.1694      1.00000
    312      -4.1308      1.00000
    313      -4.1181      1.00000
    314      -4.1103      1.00000
    315      -4.0949      1.00000
    316      -4.0661      1.00000
    317      -3.9734      1.00000
    318      -3.9348      1.00000
    319      -3.9032      1.00000
    320      -3.3565      1.00000
    321      -1.7751      0.00000
    322      -1.5596      0.00000
    323      -1.4990      0.00000
    324      -1.4764      0.00000
    325      -1.4492      0.00000
    326      -1.4262      0.00000
    327      -1.3473      0.00000
    328      -1.2799      0.00000
    329      -1.2229      0.00000
    330      -1.1471      0.00000
    331      -1.0967      0.00000
    332      -1.0807      0.00000
    333      -1.0446      0.00000
    334      -1.0123      0.00000
    335      -0.9675      0.00000
    336      -0.9385      0.00000
    337      -0.9068      0.00000
    338      -0.8439      0.00000
    339      -0.7896      0.00000
    340      -0.7337      0.00000
    341      -0.6761      0.00000
    342      -0.6423      0.00000
    343      -0.6254      0.00000
    344      -0.6091      0.00000
    345      -0.0287      0.00000
    346       0.1128      0.00000
    347       0.2075      0.00000
    348       0.3418      0.00000
[...]
     11.55445     -5.67898      0.10807         0.000748     -0.001186     -0.014107
      5.34140      4.98791      0.14120         0.000674      0.000878     -0.000269
     15.65070     -0.97378      0.17689         0.001346     -0.005101     -0.025511
      7.33692      3.77258      0.23488        -0.002758      0.001528      0.013816
     11.54861     -0.89797      0.22112         0.000472      0.001514      0.001615
      9.48898      9.89209      0.23148         0.001623     -0.001502     -0.001292
     13.61652      9.76811      0.24723         0.001931      0.001037     -0.004757
      7.39875      6.22115      0.25986        -0.000031     -0.001763      0.009432
      3.27369      8.66870      0.26829        -0.000119     -0.001089     -0.004397
     11.46873      1.54059      0.27930         0.002617      0.004228     -0.005788
     13.63801      5.00369      0.28612         0.002193      0.000722     -0.022118
      1.21536      0.33281      0.36753        -0.001603     -0.000420     -0.013881
      1.23965      5.08810      0.38862        -0.000489      0.000746     -0.011546
      7.35764     13.34580      0.42471        -0.000775     -0.005582      0.000452
      1.23271     14.65874      0.44693         0.002078     -0.001638     -0.022474
      3.17054     11.10090      0.50061        -0.001415      0.001964     -0.012424
      5.34832     14.54360      0.51203         0.001187      0.002334     -0.023760
      5.37656      7.52084      0.56164        -0.001999      0.002147      0.008403
     13.62252     -4.57829      0.55819        -0.000840      0.000043     -0.015026
      3.19019      1.57582      0.57378        -0.000262      0.001047     -0.010766
      9.54845     -4.47969      0.57233        -0.000481     -0.001435     -0.014150
     15.59859      3.74599      0.56530         0.000580      0.000258     -0.022466
     11.52488      8.66484      0.58405         0.001428      0.001851     -0.004709
      3.26913     -0.87481      0.61141        -0.000277     -0.002327     -0.010907
     15.62284     -5.79057      0.61658         0.000449     -0.002137     -0.016024
      7.41783     -3.33730      0.63679        -0.000223     -0.001531     -0.007997
     11.44332     11.11157      0.66056         0.000821      0.000166     -0.008173
     15.68909     -3.33176      0.67458         0.001401     -0.000541     -0.014433
     15.67850      6.20814      0.68557         0.000704     -0.001205     -0.022340
      9.54262     -2.14709      0.74702         0.000460     -0.001966     -0.002262
      9.49260      7.33976      0.78296         0.001985      0.000574      0.003034
     13.61777     -2.00821      0.78271         0.003046     -0.000006     -0.006092
      1.28810      7.39211      0.81064        -0.002042     -0.001116     -0.009046
      5.40088     -1.99472      0.96777        -0.002660     -0.000707     -0.007247
     13.64462      7.53137      1.01282         0.002690     -0.001766     -0.015904
      1.25089     16.93586      1.01278        -0.000243     -0.000910     -0.017139
     13.22203      4.09955      4.76548         0.002731      0.003678      0.026928
     11.29740      5.31337      4.87390         0.012883      0.005776      0.013366
     12.59212      5.20850      5.15078         0.012731      0.009687      0.019474
      9.51931      2.60698     19.43476        -0.001266      0.001503     -0.006045
      5.34659      2.72783     19.45036         0.000779      0.002399     -0.004697
     13.68802      2.77677     19.51708        -0.001636     -0.000800     -0.016374
      5.37117     12.35952     19.58020         0.002946     -0.002725     -0.009768
      9.56770     12.15978     19.60907        -0.000126     -0.001481     -0.006210
      1.23172      2.56657     19.62443        -0.000117      0.000963     -0.010640
      1.24268     12.19648     19.63217         0.000964     -0.001169     -0.020217
     13.66269     -6.79360     19.71644         0.000333     -0.000885     -0.014000
      7.39728      1.41912     19.73005        -0.000635      0.001380      0.003335
      7.34712      8.57073     19.73784         0.000625     -0.002140      0.005547
      3.13758      6.32180     19.74570         0.001513     -0.000225     -0.006073
      7.41384     11.02395     19.81272         0.000292     -0.001132     -0.002043
      3.24793      3.87889     19.90724         0.000172      0.000382     -0.008936
      7.32619     -1.02973     19.94973         0.000320     -0.000608     -0.003677
     10.96062      0.27121      2.90906        -0.021825      0.006429      0.005875
 -----------------------------------------------------------------------------------
    total drift:                                0.018665      0.000163     -0.036553
  FORCES: max atom, RMS     0.049613    0.019870
  Number: max atom                 1
  FORCE total and by dimension    0.248174    0.040226


--------------------------------------------------------------------------------------------------------



  FREE ENERGIE OF THE ION-ELECTRON SYSTEM (eV)
  ---------------------------------------------------
  free  energy   TOTEN  =     -1235.28996490 eV

  energy  without entropy=    -1235.28996490  energy(sigma->0) =    -1235.28996490
 


--------------------------------------------------------------------------------------------------------


    POTLOK:  cpu time    0.4109: real time    0.4260


--------------------------------------------------------------------------------------------------------


 writing wavefunctions
     LOOP+:  cpu time  387.8450: real time  429.8747
    4ORBIT:  cpu time    0.0000: real time    0.0000
 


 total charge     
 
# of ion     s       p       d       tot
----------------------------------------
  1        0.642   0.044   0.000   0.687
  2        0.644   0.043   0.000   0.687
  3        0.630   0.041   0.000   0.672
  4        0.639   0.042   0.000   0.681
  5        0.643   0.041   0.000   0.685
  6        0.646   0.043   0.000   0.690
  7        0.649   0.044   0.000   0.693
  8        0.647   0.043   0.000   0.690
  9        0.647   0.043   0.000   0.690
 10        0.645   0.042   0.000   0.686
 11        0.645   0.047   0.000   0.691
 12        0.646   0.043   0.000   0.689
 13        0.636   0.042   0.000   0.678
 14        0.634   0.041   0.000   0.676
 15        0.639   0.041   0.000   0.680
 16        0.641   0.042   0.000   0.684
 17        0.643   0.043   0.000   0.686
 18        0.642   0.043   0.000   0.686
 19        0.843   1.698   0.000   2.541
 20        0.838   1.680   0.000   2.518
 21        0.842   1.693   0.000   2.535
 22        0.842   1.694   0.000   2.536
 23        0.840   1.687   0.000   2.527
 24        0.841   1.692   0.000   2.534
 25        0.839   1.680   0.000   2.520
 26        0.844   1.699   0.000   2.542
 27        0.842   1.692   0.000   2.533
 28        0.841   1.685   0.000   2.526
 29        0.840   1.685   0.000   2.526
 30        0.843   1.692   0.000   2.535
 31        0.843   1.694   0.000   2.537
 32        0.841   1.687   0.000   2.528
 33        0.840   1.684   0.000   2.524
 34        0.845   1.697   0.000   2.542
 35        0.841   1.691   0.000   2.533
 36        0.841   1.688   0.000   2.529
 37        0.844   1.697   0.000   2.541
 38        0.842   1.695   0.000   2.536
 39        0.842   1.695   0.000   2.537
 40        0.843   1.696   0.000   2.539
 41        0.846   1.703   0.000   2.549
 42        0.844   1.693   0.000   2.537
 43        0.841   1.687   0.000   2.527
 44        0.840   1.682   0.000   2.522
 45        0.844   1.698   0.000   2.542
 46        0.841   1.685   0.000   2.526
 47        0.842   1.693   0.000   2.535
 48        0.843   1.695   0.000   2.537
 49        0.840   1.686   0.000   2.526
 50        0.839   1.679   0.000   2.518
 51        0.841   1.691   0.000   2.532
 52        0.839   1.682   0.000   2.521
 53        0.842   1.691   0.000   2.533
 54        0.839   1.679   0.000   2.518
 55        0.838   1.678   0.000   2.517
 56        0.842   1.691   0.000   2.534
 57        0.840   1.686   0.000   2.526
 58        0.840   1.690   0.000   2.531
 59        0.842   1.693   0.000   2.535
 60        0.842   1.693   0.000   2.535
 61        0.859   1.692   0.000   2.551
 62        0.867   1.786   0.000   2.653
 63        0.838   1.804   0.000   2.641
 64        0.868   1.777   0.000   2.644
 65        0.869   1.767   0.000   2.636
 66        0.869   1.776   0.000   2.645
 67        0.862   1.788   0.000   2.649
 68        0.873   1.781   0.000   2.654
 69        0.871   1.774   0.000   2.645
 70        0.860   1.762   0.000   2.621
 71        0.872   1.784   0.000   2.656
 72        0.859   1.759   0.000   2.618
 73        0.873   1.769   0.000   2.642
 74        0.872   1.779   0.000   2.651
 75        0.864   1.751   0.000   2.615
 76        0.872   1.762   0.000   2.634
 77        0.839   1.789   0.000   2.627
 78        0.870   1.777   0.000   2.647
 79        0.841   1.798   0.000   2.639
 80        0.875   1.798   0.000   2.673
 81        0.871   1.791   0.000   2.662
 82        0.843   1.786   0.000   2.629
 83        0.841   1.691   0.000   2.532
 84        0.839   1.681   0.000   2.519
 85        0.844   1.697   0.000   2.541
 86        0.841   1.691   0.000   2.533
 87        0.842   1.693   0.000   2.535
 88        0.839   1.681   0.000   2.520
 89        1.274   2.626   0.000   3.900
 90        1.276   2.611   0.000   3.887
 91        1.204   2.596   0.000   3.800
 92        1.273   2.591   0.000   3.864
 93        1.204   2.597   0.000   3.801
 94        1.274   2.624   0.000   3.898
 95        1.275   2.628   0.000   3.903
 96        1.272   2.601   0.000   3.872
 97        1.274   2.627   0.000   3.900
 98        1.205   2.601   0.000   3.806
 99        1.272   2.593   0.000   3.866
100        1.206   2.608   0.000   3.814
101        1.273   2.620   0.000   3.893
102        1.272   2.598   0.000   3.870
103        1.208   2.622   0.000   3.829
104        1.275   2.628   0.000   3.903
105        1.271   2.617   0.000   3.888
106        1.273   2.603   0.000   3.876
107        1.207   2.618   0.000   3.825
108        1.272   2.627   0.000   3.899
109        1.274   2.624   0.000   3.898
110        1.205   2.609   0.000   3.814
111        1.207   2.616   0.000   3.823
112        1.273   2.598   0.000   3.871
113        1.273   2.623   0.000   3.896
114        1.274   2.630   0.000   3.904
115        1.272   2.625   0.000   3.898
116        1.272   2.609   0.000   3.881
117        1.274   2.631   0.000   3.905
118        1.273   2.592   0.000   3.865
119        1.274   2.617   0.000   3.890
120        1.276   2.602   0.000   3.878
121        1.274   2.618   0.000   3.892
122        1.272   2.594   0.000   3.866
123        1.273   2.620   0.000   3.894
124        1.272   2.591   0.000   3.863
125        1.205   2.603   0.000   3.808
126        1.205   2.602   0.000   3.807
127        1.271   2.600   0.000   3.871
128        1.203   2.591   0.000   3.795
129        1.273   2.595   0.000   3.868
130        1.203   2.581   0.000   3.784
131        1.204   2.589   0.000   3.792
132        1.273   2.599   0.000   3.872
133        1.274   2.588   0.000   3.861
134        1.273   2.589   0.000   3.862
135        1.273   2.592   0.000   3.865
136        1.274   2.583   0.000   3.857
137        1.273   2.581   0.000   3.854
138        1.272   2.588   0.000   3.860
139        1.286   2.518   0.000   3.804
140        1.287   2.520   0.000   3.808
141        1.232   2.644   0.000   3.877
142        1.271   2.598   0.000   3.869
143        1.273   2.586   0.000   3.859
144        1.275   2.589   0.000   3.864
145        1.273   2.587   0.000   3.860
146        1.274   2.589   0.000   3.862
147        1.274   2.588   0.000   3.862
148        1.272   2.600   0.000   3.872
149        1.275   2.590   0.000   3.865
150        1.203   2.584   0.000   3.787
151        1.271   2.596   0.000   3.868
152        1.273   2.590   0.000   3.863
153        1.204   2.594   0.000   3.798
154        1.206   2.609   0.000   3.816
155        1.273   2.599   0.000   3.872
156        1.780   4.384   0.000   6.165
------------------------------------------------
tot      156.912 299.607   0.000 456.519
 


 magnetization (x)
 
# of ion     s       p       d       tot
----------------------------------------
  1        0.000  -0.000   0.000   0.000
  2        0.000  -0.000   0.000   0.000
  3        0.000  -0.000   0.000   0.000
  4        0.000  -0.000   0.000   0.000
  5        0.000  -0.000   0.000   0.000
  6        0.000  -0.000   0.000   0.000
  7        0.000  -0.000   0.000   0.000
  8        0.000   0.000   0.000   0.000
  9        0.000   0.000   0.000   0.000
 10        0.000  -0.000   0.000   0.000
 11        0.000   0.000   0.000   0.000
 12        0.000  -0.000   0.000   0.000
 13        0.000   0.000   0.000   0.000
 14        0.000   0.000   0.000   0.000
 15        0.000   0.000   0.000   0.000
 16        0.000  -0.000   0.000   0.000
 17        0.000   0.000   0.000   0.000
 18       -0.000   0.000   0.000  -0.000
 19        0.000   0.000   0.000   0.000
 20        0.000   0.000   0.000   0.000
 21        0.000   0.000   0.000   0.000
 22       -0.000   0.000   0.000   0.000
 23        0.000   0.000   0.000   0.000
 24        0.000   0.000   0.000   0.000
 25        0.000   0.000   0.000   0.000
 26        0.000   0.000   0.000   0.000
 27        0.000   0.000   0.000   0.000
 28        0.000   0.000   0.000   0.000
 29       -0.000   0.000   0.000   0.000
 30        0.000   0.000   0.000   0.000
 31       -0.000   0.000   0.000   0.000
 32        0.000   0.000   0.000   0.000
 33        0.000   0.000   0.000   0.000
 34        0.000   0.000   0.000   0.000
 35        0.000   0.000   0.000   0.000
 36       -0.000   0.000   0.000   0.000
 37        0.000   0.000   0.000   0.000
 38       -0.000   0.000   0.000   0.000
 39        0.000   0.000   0.000   0.000
 40        0.000   0.000   0.000   0.000
 41       -0.000   0.000   0.000   0.000
 42        0.000   0.000   0.000   0.000
 43        0.000   0.000   0.000   0.000
 44        0.000   0.000   0.000   0.000
 45       -0.000   0.000   0.000   0.000
 46       -0.000   0.000   0.000   0.000
 47        0.000   0.000   0.000   0.000
 48        0.000   0.000   0.000   0.000
 49       -0.000   0.000   0.000   0.000
 50        0.000   0.000   0.000   0.000
 51        0.000   0.000   0.000   0.000
 52        0.000   0.000   0.000   0.000
 53        0.000   0.000   0.000   0.000
 54        0.000   0.000   0.000   0.000
 55        0.000   0.000   0.000   0.000
 56        0.000   0.000   0.000   0.000
 57        0.000   0.000   0.000   0.000
 58       -0.000   0.000   0.000   0.000
 59        0.000   0.000   0.000   0.000
 60        0.000   0.000   0.000   0.000
 61        0.000   0.000   0.000   0.000
 62       -0.000  -0.000   0.000  -0.000
 63       -0.000   0.000   0.000  -0.000
 64       -0.000   0.000   0.000  -0.000
 65       -0.000   0.000   0.000   0.000
 66       -0.000  -0.000   0.000  -0.000
 67       -0.000  -0.000   0.000  -0.000
 68        0.000   0.000   0.000   0.000
 69       -0.000   0.000   0.000   0.000
 70       -0.000   0.000   0.000   0.000
 71       -0.000   0.000   0.000   0.000
 72       -0.000   0.000   0.000   0.000
 73       -0.000   0.000   0.000   0.000
 74       -0.000   0.000   0.000   0.000
 75       -0.000   0.000   0.000   0.000
 76       -0.000   0.000   0.000   0.000
 77       -0.000   0.000   0.000   0.000
 78       -0.000   0.000   0.000   0.000
 79       -0.000   0.000   0.000   0.000
 80       -0.000   0.000   0.000   0.000
 81       -0.000   0.000   0.000   0.000
 82        0.000   0.000   0.000   0.000
 83        0.000   0.000   0.000   0.000
 84        0.000   0.000   0.000   0.000
 85        0.000   0.000   0.000   0.000
 86       -0.000   0.000   0.000   0.000
 87        0.000   0.000   0.000   0.000
 88        0.000   0.000   0.000   0.000
 89       -0.000  -0.000   0.000  -0.000
 90       -0.000  -0.000   0.000  -0.000
 91       -0.000  -0.000   0.000  -0.000
 92       -0.000  -0.000   0.000  -0.000
 93       -0.000  -0.000   0.000  -0.000
 94       -0.000  -0.000   0.000  -0.000
 95        0.000  -0.000   0.000  -0.000
 96       -0.000  -0.000   0.000  -0.000
 97       -0.000  -0.000   0.000  -0.000
 98       -0.000  -0.000   0.000  -0.000
 99       -0.000  -0.000   0.000  -0.000
100       -0.000  -0.000   0.000  -0.000
101       -0.000  -0.000   0.000  -0.000
102       -0.000  -0.000   0.000  -0.000
103       -0.000  -0.000   0.000  -0.000
104       -0.000  -0.000   0.000  -0.000
105       -0.000  -0.000   0.000  -0.000
106       -0.000  -0.000   0.000  -0.000
107       -0.000  -0.000   0.000  -0.000
108       -0.000  -0.000   0.000  -0.000
109       -0.000  -0.000   0.000  -0.000
110       -0.000  -0.000   0.000  -0.000
111       -0.000  -0.000   0.000  -0.000
112       -0.000  -0.000   0.000  -0.000
113       -0.000  -0.000   0.000  -0.000
114       -0.000  -0.000   0.000  -0.000
115       -0.000  -0.000   0.000  -0.000
116       -0.000  -0.000   0.000  -0.000
117       -0.000  -0.000   0.000  -0.000
118       -0.000  -0.000   0.000  -0.000
119       -0.000  -0.000   0.000  -0.000
120        0.000  -0.000   0.000  -0.000
121       -0.000  -0.000   0.000  -0.000
122       -0.000  -0.000   0.000  -0.000
123       -0.000  -0.000   0.000  -0.000
124       -0.000  -0.000   0.000  -0.000
125       -0.000  -0.000   0.000  -0.000
126       -0.000  -0.000   0.000  -0.000
127       -0.000  -0.000   0.000  -0.000
128       -0.000  -0.000   0.000  -0.000
129       -0.000  -0.000   0.000  -0.000
130       -0.000  -0.000   0.000  -0.000
131       -0.000  -0.000   0.000  -0.000
132       -0.000  -0.000   0.000  -0.000
133       -0.000  -0.000   0.000  -0.000
134       -0.000  -0.000   0.000  -0.000
135       -0.000  -0.000   0.000  -0.000
136       -0.000  -0.000   0.000  -0.000
137       -0.000  -0.000   0.000  -0.000
138       -0.000  -0.000   0.000  -0.000
139        0.000   0.000   0.000   0.000
140        0.000   0.000   0.000   0.000
141        0.000   0.000   0.000   0.000
142        0.000  -0.000   0.000  -0.000
143       -0.000  -0.000   0.000  -0.000
144        0.000  -0.000   0.000  -0.000
145       -0.000  -0.000   0.000  -0.000
146       -0.000  -0.000   0.000  -0.000
147       -0.000  -0.000   0.000  -0.000
148       -0.000  -0.000   0.000  -0.000
149       -0.000  -0.000   0.000  -0.000
150       -0.000  -0.000   0.000  -0.000
151        0.000  -0.000   0.000  -0.000
152       -0.000  -0.000   0.000  -0.000
153       -0.000  -0.000   0.000  -0.000
154       -0.000  -0.000   0.000  -0.000
155       -0.000  -0.000   0.000  -0.000
156        0.000   0.000   0.000   0.000
------------------------------------------------
tot       -0.000  -0.000   0.000  -0.000
 
 BZINTS: Fermi energy: -3.352340;640.000000 electrons
         Band energy:***********;  BLOECHL correction:  0.000000

 total amount of memory used by VASP on root node   442531. kBytes
========================================================================

   base      :      30000. kBytes
   nonlr-proj:      26738. kBytes
   fftplans  :      11336. kBytes
   grid      :      94408. kBytes
   one-center:        958. kBytes
   wavefun   :     279091. kBytes
 
  
  
 General timing and accounting informations for this job:
 ========================================================
  
                  Total CPU time used (sec):      445.736
                            User time (sec):      430.121
                          System time (sec):       15.616
                         Elapsed time (sec):      507.609
  
                   Maximum memory used (kb):      735748.
                   Average memory used (kb):           0.
  
                          Minor page faults:       216975
                          Major page faults:            0
                 Voluntary context switches:         4196
