C3N4-4x4-H1-new                         
           1
    16.558025   -9.559780    0.000000
     0.000000   19.119560    0.000000
     0.000000    0.000000   20.000000
   H    C    N    F 
  18  70  67   1
Direct configuration=     1
   0.54188249  0.36512676  0.14532420
   0.81401686  0.43047598  0.14377084
   0.46982982  0.68457476  0.14776167
   0.86804324  0.53725647  0.15742999
   0.11670056  0.61347470  0.16115123
   0.30918866  0.36944430  0.17598000
   0.43317434  0.36086378  0.17789432
   0.19597859  0.41262414  0.17809148
   0.11639925  0.48260649  0.18177440
   0.20443142  0.70688498  0.18092238
   0.57829989  0.62091441  0.19139733
   0.33439817  0.71373900  0.19559315
   0.84224704  0.47051498  0.22590876
   0.46883813  0.68150857  0.23597033
   0.14588036  0.63890297  0.24560560
   0.82933945  0.77960765  0.26078388
   0.84915836  0.72620047  0.32498408
   0.75756833  0.73129059  0.32703137
   0.03625407  0.59473938  0.98943369
   0.65259861  0.46327168  0.99110389
   0.78627563  0.59661524  0.99424017
   0.65388559  0.59819964  0.99493707
   0.40284221  0.20902285  0.99681541
   0.90399177  0.46016660  0.99744922
   0.90288646  0.59378887  0.99877474
   0.03520134  0.09352626  0.00081969
   0.15238169  0.34580656  0.00117880
   0.15185687  0.21251259  0.00186298
   0.15224989  0.71371444  0.00232896
   0.28562804  0.84627427  0.00257445
   0.65402738  0.34648711  0.00395380
   0.65312428  0.96332846  0.00617552
   0.90251238  0.09342038  0.00625618
   0.78573178  0.09527802  0.00677243
   0.90262348  0.95944283  0.00706503
   0.40246052  0.59344725  0.00931358
   0.65368999  0.09605528  0.00889868
   0.40297484  0.45997547  0.00987428
   0.15336434  0.84738071  0.00967215
   0.15401009  0.59685460  0.01008783
   0.28569657  0.59559446  0.01261707
   0.78526421  0.34450008  0.01343802
   0.65240219  0.21304432  0.01407719
   0.15267730  0.46329427  0.01412437
   0.53501667  0.59400439  0.01573943
   0.65177044  0.71244334  0.02154201
   0.65217254  0.84613353  0.02409326
   0.15335614  0.09748665  0.02535155
   0.90307078  0.70929793  0.02519630
   0.40288657  0.09397809  0.02599625
   0.40376273  0.96047551  0.02598819
   0.90239354  0.34406618  0.02707292
   0.28605343  0.09626150  0.02747394
   0.15235452  0.96353196  0.02826256
   0.90170442  0.84260182  0.03013587
   0.78462525  0.84456364  0.03067993
   0.90333355  0.21006983  0.03056358
   0.03699452  0.34504082  0.03099325
   0.53692994  0.09489902  0.03225473
   0.03584788  0.84407594  0.03564385
   0.66763552  0.41636360  0.16581442
   0.59482967  0.41844216  0.16521258
   0.82059659  0.47888203  0.17717097
   0.36775893  0.42470936  0.17988854
   0.43837296  0.42032625  0.18049693
   0.22678346  0.47829522  0.18310253
   0.74278391  0.47934218  0.18350657
   0.37288062  0.50029592  0.18447709
   0.18220586  0.51783079  0.18538198
   0.51555357  0.49015575  0.18538644
   0.31108570  0.52397487  0.18621467
   0.59030856  0.48540391  0.18703196
   0.44956214  0.57064296  0.18823902
   0.51968614  0.56602151  0.18852915
   0.21973995  0.60242049  0.19058072
   0.34973934  0.60906907  0.19062611
   0.44032041  0.64458225  0.19107125
   0.30451845  0.64783204  0.19270136
   0.16936723  0.64270667  0.19458327
   0.73847320  0.54614466  0.20904248
   0.66541103  0.54940854  0.21184562
   0.80200455  0.72760843  0.29489971
   0.53596630  0.34350790  0.98257823
   0.40158172  0.34235772  0.99007967
   0.28450635  0.34397235  0.99158092
   0.40359769  0.71115483  0.99187058
   0.53655770  0.84535462  0.99460048
   0.40279735  0.84477650  0.99699434
   0.57533982  0.30286771  0.98971027
   0.82367820  0.42044220  0.99011987
   0.69782119  0.55326825  0.99044660
   0.69057683  0.17449671  0.99124944
   0.94783586  0.54931092  0.99236668
   0.07619603  0.55417213  0.99304228
   0.57346786  0.55570695  0.99579339
   0.69403045  0.67949449  0.99666318
   0.32349051  0.67420105  0.99784416
   0.94668430  0.04829550  0.00187832
   0.19183441  0.92823492  0.00174289
   0.19724490  0.80296657  0.00254844
   0.32267784  0.17199928  0.00455824
   0.94230754  0.91779682  0.00497071
   0.69781567  0.05188337  0.00540368
   0.32258652  0.42217314  0.00705995
   0.94520350  0.42167041  0.00884465
   0.44310345  0.41886668  0.01174422
   0.69746300  0.30176539  0.01105602
   0.57307421  0.80391799  0.01157388
   0.82235158  0.92207215  0.01236142
   0.44683770  0.54880019  0.01299324
   0.19770992  0.55224918  0.01341429
   0.69263853  0.42689616  0.01396512
   0.82364974  0.67352991  0.01430607
   0.07340024  0.05410700  0.01837656
   0.07486720  0.30355389  0.01943089
   0.44435510  0.92019548  0.02123531
   0.07444773  0.80391223  0.02234646
   0.19148042  0.67634456  0.02503038
   0.32300456  0.92216857  0.02560127
   0.32471040  0.55571375  0.02808202
   0.82271431  0.17190139  0.02790957
   0.19266718  0.17875266  0.02868918
   0.57666613  0.05403420  0.02861665
   0.94205630  0.66695274  0.02826497
   0.69603006  0.80120750  0.02920244
   0.19743470  0.05296241  0.03057062
   0.94352097  0.16889949  0.03082922
   0.44798993  0.04944584  0.03183935
   0.69110406  0.92671439  0.03302781
   0.94752169  0.29950185  0.03372887
   0.94688248  0.79814214  0.03427873
   0.57631375  0.17585855  0.03735108
   0.57329293  0.67053387  0.03914813
   0.82242712  0.30617940  0.03913573
   0.07779310  0.42552230  0.04053175
   0.32617916  0.05876086  0.04838829
   0.82404883  0.80593360  0.05064112
   0.07554565  0.92355988  0.05063920
   0.79852680  0.61368015  0.23827395
   0.68229162  0.61904833  0.24369496
   0.76048437  0.65265949  0.25753887
   0.57490630  0.42380459  0.97173807
   0.32290030  0.30412229  0.97251798
   0.82666969  0.55856661  0.97585416
   0.32438474  0.80862557  0.97901014
   0.57782883  0.92490073  0.98045361
   0.07438839  0.17143224  0.98122151
   0.07505011  0.67543086  0.98160836
   0.82513994  0.05724796  0.98582204
   0.44674899  0.29759814  0.98650275
   0.44371934  0.67013004  0.98689198
   0.18948992  0.42539041  0.98728492
   0.44774935  0.80045452  0.99063598
   0.19615432  0.30095250  0.99536214
   0.44245578  0.16737069  0.99748667
   0.66195239  0.34516093  0.14545287
